         Total DFT energy =     -460.551243886318
@ Step       Energy      Delta E   Gmax     Grms     Xrms     Xmax   Walltime
@ ---- ---------------- -------- -------- -------- -------- -------- --------
@    0    -460.55124389  0.0D+00  0.37116  0.23466  0.00000  0.00000      4.0
         Total DFT energy =     -460.632910465370
         Total DFT energy =   -460.632910465370
@    1    -460.63291047 -8.2D-02  0.04297  0.02717  0.12247  0.19372      6.7
         Total DFT energy =     -460.634874297120
         Total DFT energy =     -460.635673587600
@    2    -460.63567359 -2.8D-03  0.00430  0.00272  0.03224  0.05100     10.3
         Total DFT energy =     -460.635707723090
         Total DFT energy =     -460.635708850600
@    3    -460.63570885 -3.5D-05  0.00007  0.00004  0.00430  0.00680     12.2
         Total DFT energy =     -460.635708919033

                       DFT Final Molecular Orbital Analysis
                       ------------------------------------

 Vector    1  Occ=2.000000D+00  E=-1.007132D+02

 Vector    5  Occ=2.000000D+00  E=-7.011911D+00

 Vector    6  Occ=2.000000D+00  E=-7.738832D-01

 Vector    7  Occ=2.000000D+00  E=-4.309128D-01

 Vector    8  Occ=2.000000D+00  E=-2.951735D-01

 Vector    9  Occ=2.000000D+00  E=-2.951735D-01

 Vector   10  Occ=0.000000D+00  E=-4.366847D-02

 Vector   11  Occ=0.000000D+00  E= 2.336241D-02

 Vector   12  Occ=0.000000D+00  E= 4.494868D-02

 Vector   13  Occ=0.000000D+00  E= 5.314016D-02

 Vector   14  Occ=0.000000D+00  E= 5.314016D-02

 Vector   15  Occ=0.000000D+00  E= 9.769851D-02

 Vector   16  Occ=0.000000D+00  E= 1.284466D-01

 Vector   17  Occ=0.000000D+00  E= 1.284466D-01

 Vector   18  Occ=0.000000D+00  E= 2.016334D-01

 Vector   19  Occ=0.000000D+00  E= 2.016337D-01

 Vector   20  Occ=0.000000D+00  E= 2.154519D-01

 Vector   21  Occ=0.000000D+00  E= 2.820216D-01

 Vector   22  Occ=0.000000D+00  E= 3.000654D-01

 Vector   23  Occ=0.000000D+00  E= 3.000654D-01

 Vector   24  Occ=0.000000D+00  E= 3.559406D-01

 Vector   25  Occ=0.000000D+00  E= 3.637032D-01

 Vector   26  Occ=0.000000D+00  E= 3.637032D-01

 Vector   27  Occ=0.000000D+00  E= 3.789197D-01

 Vector   28  Occ=0.000000D+00  E= 5.961815D-01

 Vector   29  Occ=0.000000D+00  E= 6.437933D-01

 Vector   30  Occ=0.000000D+00  E= 6.437933D-01

 Vector   31  Occ=0.000000D+00  E= 6.571901D-01

 Vector   32  Occ=0.000000D+00  E= 6.571906D-01

 Vector   33  Occ=0.000000D+00  E= 6.834230D-01

 Vector   34  Occ=0.000000D+00  E= 7.095469D-01

 Vector   35  Occ=0.000000D+00  E= 7.095475D-01

 Vector   36  Occ=0.000000D+00  E= 7.605468D-01

 Vector   37  Occ=0.000000D+00  E= 7.605468D-01

 Vector   38  Occ=0.000000D+00  E= 8.490196D-01

 Vector   39  Occ=0.000000D+00  E= 9.339346D-01

 Vector   40  Occ=0.000000D+00  E= 9.495407D-01

 Vector   41  Occ=0.000000D+00  E= 9.495407D-01

 Vector   42  Occ=0.000000D+00  E= 1.059886D+00

 Vector   43  Occ=0.000000D+00  E= 1.059886D+00

 Vector   44  Occ=0.000000D+00  E= 1.113668D+00

 Vector   45  Occ=0.000000D+00  E= 1.113668D+00

 Vector   46  Occ=0.000000D+00  E= 1.144335D+00

 Vector   47  Occ=0.000000D+00  E= 1.144335D+00

 Vector   48  Occ=0.000000D+00  E= 1.208651D+00

 Vector   49  Occ=0.000000D+00  E= 1.393813D+00

 Vector   50  Occ=0.000000D+00  E= 1.506371D+00

 Vector   51  Occ=0.000000D+00  E= 1.547647D+00

 Vector   52  Occ=0.000000D+00  E= 1.547647D+00

 Vector   53  Occ=0.000000D+00  E= 1.806919D+00

 Vector   54  Occ=0.000000D+00  E= 2.100751D+00

 Vector   55  Occ=0.000000D+00  E= 2.100758D+00

 Vector   56  Occ=0.000000D+00  E= 2.241282D+00

 Vector   57  Occ=0.000000D+00  E= 2.241282D+00

 Vector   58  Occ=0.000000D+00  E= 2.431873D+00

 Vector   59  Occ=0.000000D+00  E= 2.607121D+00

 Vector   60  Occ=0.000000D+00  E= 2.607121D+00

 Vector   61  Occ=0.000000D+00  E= 2.638671D+00

 Vector   62  Occ=0.000000D+00  E= 2.638671D+00

 Vector   63  Occ=0.000000D+00  E= 2.656982D+00

 Vector   64  Occ=0.000000D+00  E= 2.656985D+00

 Vector   65  Occ=0.000000D+00  E= 2.787560D+00

 Vector   66  Occ=0.000000D+00  E= 2.787560D+00

 Vector   67  Occ=0.000000D+00  E= 2.915014D+00

 Vector   68  Occ=0.000000D+00  E= 2.980765D+00

 Vector   69  Occ=0.000000D+00  E= 3.126889D+00

 Vector   70  Occ=0.000000D+00  E= 3.545910D+00

 Vector   71  Occ=0.000000D+00  E= 3.545910D+00

 Vector   72  Occ=0.000000D+00  E= 3.920607D+00

 Vector   73  Occ=0.000000D+00  E= 4.020727D+00

 Vector   74  Occ=0.000000D+00  E= 4.020727D+00

 Vector   75  Occ=0.000000D+00  E= 4.084117D+00

 Vector   76  Occ=0.000000D+00  E= 4.084117D+00

 Vector   77  Occ=0.000000D+00  E= 4.425876D+00

 Vector   78  Occ=0.000000D+00  E= 4.822356D+00

 Vector   79  Occ=0.000000D+00  E= 5.444353D+00

 Vector   80  Occ=0.000000D+00  E= 5.519996D+00

 Vector   81  Occ=0.000000D+00  E= 5.519996D+00

 Vector   82  Occ=0.000000D+00  E= 6.253509D+00

 Vector   83  Occ=0.000000D+00  E= 8.239402D+00

 Vector   84  Occ=0.000000D+00  E= 8.866062D+00

     Multipole analysis of the density
     ---------------------------------

     L   x y z        total         alpha         beta         nuclear
     -   - - -        -----         -----         ----         -------
     0   0 0 0     -0.000000     -9.000000     -9.000000     18.000000

     1   1 0 0      0.395278      1.347766      1.347766     -2.300254
     1   0 1 0      0.010238      0.034909      0.034909     -0.059580
     1   0 0 1     -0.176091     -0.600410     -0.600410      1.024730

     2   2 0 0     -8.378056     -6.682103     -6.682103      4.986150
     2   1 1 0      0.054627     -0.037261     -0.037261      0.129148
     2   1 0 1     -0.939548      0.640855      0.640855     -2.221257
     2   0 2 0    -10.485684     -5.244514     -5.244514      0.003345
     2   0 1 1     -0.024336      0.016599      0.016599     -0.057534

         Total DFT energy =   -460.635708919033
@    4    -460.63570892 -6.8D-08  0.00004  0.00003  0.00007  0.00010     13.3
@    4    -460.63570892 -6.8D-08  0.00004  0.00003  0.00007  0.00010     13.3

 Output coordinates in angstroms (scale by  1.889725989 to convert to a.u.)

  No.       Tag          Charge          X              Y              Z
 ---- ---------------- ---------- -------------- -------------- --------------
    1 Cl                  17.0000    -0.13315281    -0.00344884     0.05931763
    2 H                    1.0000     1.04635554     0.02710206    -0.46613613

 Total times  cpu:       11.5s     wall:       13.3s
