 Output coordinates in angstroms (scale by  1.889725989 to convert to a.u.)

  No.       Tag          Charge          X              Y              Z
 ---- ---------------- ---------- -------------- -------------- --------------
    1 C                    6.0000    -0.00282619    -0.00847686    -0.07545256
    2 C                    6.0000    -0.01728729     0.05111401     1.50859218
    3 O                    8.0000     0.58484252     1.00435820    -0.54130758
    4 O                    8.0000    -0.54386086    -0.99059763    -0.61559372
    5 H                    1.0000     0.49611359     0.93868263     1.88409838
    6 Cl                  17.0000    -1.71237918     0.15373246     2.18072604
    7 Cl                  17.0000     0.84895341    -1.36607780     2.26951027

         Total DFT energy =    -1147.111522219401

                    DFT Final Alpha Molecular Orbital Analysis
                    ------------------------------------------

 Vector    1  Occ=1.000000D+00  E=-1.007555D+02

 Vector  284  Occ=0.000000D+00  E= 4.087378D+00

 Vector  285  Occ=0.000000D+00  E= 4.114208D+00

 Vector  286  Occ=0.000000D+00  E= 4.187201D+00

 Vector  287  Occ=0.000000D+00  E= 4.219908D+00

 Vector  288  Occ=0.000000D+00  E= 4.222127D+00

 Vector  289  Occ=0.000000D+00  E= 4.358806D+00

 Vector  290  Occ=0.000000D+00  E= 4.363877D+00

 Vector  291  Occ=0.000000D+00  E= 4.466337D+00

 Vector  292  Occ=0.000000D+00  E= 4.511440D+00

 Vector  293  Occ=0.000000D+00  E= 4.545926D+00

 Vector  294  Occ=0.000000D+00  E= 4.667028D+00

 Vector  295  Occ=0.000000D+00  E= 4.738069D+00

 Vector  296  Occ=0.000000D+00  E= 4.843094D+00

 Vector  297  Occ=0.000000D+00  E= 4.903985D+00

 Vector  298  Occ=0.000000D+00  E= 5.044376D+00

 Vector  299  Occ=0.000000D+00  E= 5.117377D+00

 Vector  300  Occ=0.000000D+00  E= 5.124728D+00

 Vector  301  Occ=0.000000D+00  E= 5.172577D+00

 Vector  302  Occ=0.000000D+00  E= 5.253938D+00

 Vector  303  Occ=0.000000D+00  E= 5.457394D+00

 Vector  304  Occ=0.000000D+00  E= 5.468967D+00

 Vector  305  Occ=0.000000D+00  E= 5.623165D+00

 Vector  306  Occ=0.000000D+00  E= 5.730230D+00

 Vector  307  Occ=0.000000D+00  E= 5.752947D+00

 Vector  308  Occ=0.000000D+00  E= 5.769244D+00

 Vector  309  Occ=0.000000D+00  E= 5.840809D+00

 Vector  310  Occ=0.000000D+00  E= 5.952085D+00

 Vector  311  Occ=0.000000D+00  E= 6.019604D+00

 Vector  312  Occ=0.000000D+00  E= 6.063540D+00

 Vector  313  Occ=0.000000D+00  E= 6.101267D+00

 Vector  314  Occ=0.000000D+00  E= 6.119007D+00

 Vector  315  Occ=0.000000D+00  E= 6.168010D+00

 Vector  316  Occ=0.000000D+00  E= 6.236594D+00

 Vector  317  Occ=0.000000D+00  E= 6.317559D+00

 Vector  318  Occ=0.000000D+00  E= 6.344706D+00

 Vector  319  Occ=0.000000D+00  E= 6.356811D+00

 Vector  320  Occ=0.000000D+00  E= 6.432537D+00

 Vector  321  Occ=0.000000D+00  E= 6.484060D+00

 Vector  322  Occ=0.000000D+00  E= 6.512219D+00

 Vector  323  Occ=0.000000D+00  E= 6.541689D+00

 Vector  324  Occ=0.000000D+00  E= 6.616536D+00

 Vector  325  Occ=0.000000D+00  E= 6.644796D+00

 Vector  326  Occ=0.000000D+00  E= 6.649348D+00

 Vector  327  Occ=0.000000D+00  E= 6.785768D+00

 Vector  328  Occ=0.000000D+00  E= 6.872867D+00

 Vector  329  Occ=0.000000D+00  E= 6.983275D+00

 Vector  330  Occ=0.000000D+00  E= 7.020713D+00

 Vector  331  Occ=0.000000D+00  E= 7.081374D+00

 Vector  332  Occ=0.000000D+00  E= 7.143857D+00

 Vector  333  Occ=0.000000D+00  E= 7.214938D+00

 Vector  334  Occ=0.000000D+00  E= 7.267807D+00

 Vector  335  Occ=0.000000D+00  E= 7.379382D+00

 Vector  336  Occ=0.000000D+00  E= 7.490640D+00

 Vector  337  Occ=0.000000D+00  E= 7.523947D+00

 Vector  338  Occ=0.000000D+00  E= 7.739916D+00

 Vector  339  Occ=0.000000D+00  E= 7.864376D+00

 Vector  340  Occ=0.000000D+00  E= 7.911014D+00

 Vector  341  Occ=0.000000D+00  E= 8.274391D+00

 Vector  342  Occ=0.000000D+00  E= 8.417264D+00

 Vector  343  Occ=0.000000D+00  E= 8.842683D+00

 Vector  344  Occ=0.000000D+00  E= 8.853587D+00

 Vector  345  Occ=0.000000D+00  E= 9.228633D+00

 Vector  346  Occ=0.000000D+00  E= 9.460233D+00

 Vector  347  Occ=0.000000D+00  E= 9.642680D+00

 Vector  348  Occ=0.000000D+00  E= 9.921278D+00

 Vector  349  Occ=0.000000D+00  E= 1.010941D+01

 Vector  350  Occ=0.000000D+00  E= 1.191774D+01

 Vector  351  Occ=0.000000D+00  E= 1.282432D+01

 Vector  352  Occ=0.000000D+00  E= 1.363776D+01

 Vector  353  Occ=0.000000D+00  E= 1.413649D+01

 Vector  354  Occ=0.000000D+00  E= 1.427991D+01

 Vector  355  Occ=0.000000D+00  E= 1.450330D+01

 Vector  356  Occ=0.000000D+00  E= 1.507502D+01

 Vector  357  Occ=0.000000D+00  E= 1.516092D+01

 Vector  358  Occ=0.000000D+00  E= 1.652823D+01

 Vector  359  Occ=0.000000D+00  E= 1.666815D+01

 Vector  360  Occ=0.000000D+00  E= 1.867627D+01

 Vector  361  Occ=0.000000D+00  E= 1.939530D+01

 Vector  362  Occ=0.000000D+00  E= 2.787481D+01

 Vector  363  Occ=0.000000D+00  E= 2.902546D+01

     Multipole analysis of the density
     ---------------------------------

     L   x y z        total         alpha         beta         nuclear
     -   - - -        -----         -----         ----         -------
     0   0 0 0     -0.000000    -32.000000    -31.000000     63.000000

     1   1 0 0      0.108783     13.289453     13.228160    -26.408830
     1   0 1 0      0.236974     18.397022     18.321643    -36.481691
     1   0 0 1      0.935741    -72.304044    -72.045643    145.285428

     2   2 0 0    -34.695486   -138.956119   -136.611108    240.871741
     2   1 1 0     -1.366204     25.151574     26.052198    -52.569977
     2   1 0 1      0.270608     53.685867     53.011718   -106.426976
     2   0 2 0    -36.309642   -107.241900   -103.849993    174.782252
     2   0 1 1      0.520426     79.699095     78.812950   -157.991619

 Total times  cpu:      153.3s     wall:      157.2s
