 Output coordinates in angstroms (scale by  1.889725989 to convert to a.u.)

  No.       Tag          Charge          X              Y              Z
 ---- ---------------- ---------- -------------- -------------- --------------
    1 C                    6.0000    -0.00487398    -0.01628148    -0.03694303
    2 O                    8.0000    -0.09975895    -0.01189477     1.42769314
    3 O                    8.0000     0.59085117     0.99198238    -0.50139033
    4 O                    8.0000    -0.52616375    -1.01020159    -0.57155799
    5 H                    1.0000     0.35381452     0.82327546     1.63735822

         Total DFT energy =     -264.168847485788

                    DFT Final Alpha Molecular Orbital Analysis
                    ------------------------------------------

 Vector    1  Occ=1.000000D+00  E=-1.885602D+01

 Vector  166  Occ=0.000000D+00  E= 4.037544D+00

 Vector  167  Occ=0.000000D+00  E= 4.088246D+00

 Vector  168  Occ=0.000000D+00  E= 4.119358D+00

 Vector  169  Occ=0.000000D+00  E= 4.167040D+00

 Vector  170  Occ=0.000000D+00  E= 4.249601D+00

 Vector  171  Occ=0.000000D+00  E= 4.330924D+00

 Vector  172  Occ=0.000000D+00  E= 4.480187D+00

 Vector  173  Occ=0.000000D+00  E= 4.555594D+00

 Vector  174  Occ=0.000000D+00  E= 4.608473D+00

 Vector  175  Occ=0.000000D+00  E= 4.821422D+00

 Vector  176  Occ=0.000000D+00  E= 4.949568D+00

 Vector  177  Occ=0.000000D+00  E= 5.031562D+00

 Vector  178  Occ=0.000000D+00  E= 5.044590D+00

 Vector  179  Occ=0.000000D+00  E= 5.080414D+00

 Vector  180  Occ=0.000000D+00  E= 5.086446D+00

 Vector  181  Occ=0.000000D+00  E= 5.189264D+00

 Vector  182  Occ=0.000000D+00  E= 5.251025D+00

 Vector  183  Occ=0.000000D+00  E= 5.380145D+00

 Vector  184  Occ=0.000000D+00  E= 5.451512D+00

 Vector  185  Occ=0.000000D+00  E= 5.725006D+00

 Vector  186  Occ=0.000000D+00  E= 5.915127D+00

 Vector  187  Occ=0.000000D+00  E= 5.968690D+00

 Vector  188  Occ=0.000000D+00  E= 6.006447D+00

 Vector  189  Occ=0.000000D+00  E= 6.031035D+00

 Vector  190  Occ=0.000000D+00  E= 6.058128D+00

 Vector  191  Occ=0.000000D+00  E= 6.107597D+00

 Vector  192  Occ=0.000000D+00  E= 6.137252D+00

 Vector  193  Occ=0.000000D+00  E= 6.170832D+00

 Vector  194  Occ=0.000000D+00  E= 6.210840D+00

 Vector  195  Occ=0.000000D+00  E= 6.249766D+00

 Vector  196  Occ=0.000000D+00  E= 6.315804D+00

 Vector  197  Occ=0.000000D+00  E= 6.328334D+00

 Vector  198  Occ=0.000000D+00  E= 6.342209D+00

 Vector  199  Occ=0.000000D+00  E= 6.355955D+00

 Vector  200  Occ=0.000000D+00  E= 6.398348D+00

 Vector  201  Occ=0.000000D+00  E= 6.468829D+00

 Vector  202  Occ=0.000000D+00  E= 6.478174D+00

 Vector  203  Occ=0.000000D+00  E= 6.487473D+00

 Vector  204  Occ=0.000000D+00  E= 6.532105D+00

 Vector  205  Occ=0.000000D+00  E= 6.600961D+00

 Vector  206  Occ=0.000000D+00  E= 6.605438D+00

 Vector  207  Occ=0.000000D+00  E= 6.633371D+00

 Vector  208  Occ=0.000000D+00  E= 6.700785D+00

 Vector  209  Occ=0.000000D+00  E= 6.713008D+00

 Vector  210  Occ=0.000000D+00  E= 6.765884D+00

 Vector  211  Occ=0.000000D+00  E= 6.783939D+00

 Vector  212  Occ=0.000000D+00  E= 6.870386D+00

 Vector  213  Occ=0.000000D+00  E= 6.967707D+00

 Vector  214  Occ=0.000000D+00  E= 7.023290D+00

 Vector  215  Occ=0.000000D+00  E= 7.071136D+00

 Vector  216  Occ=0.000000D+00  E= 7.143374D+00

 Vector  217  Occ=0.000000D+00  E= 7.196757D+00

 Vector  218  Occ=0.000000D+00  E= 7.234235D+00

 Vector  219  Occ=0.000000D+00  E= 7.339039D+00

 Vector  220  Occ=0.000000D+00  E= 7.472753D+00

 Vector  221  Occ=0.000000D+00  E= 7.479704D+00

 Vector  222  Occ=0.000000D+00  E= 7.573940D+00

 Vector  223  Occ=0.000000D+00  E= 7.685297D+00

 Vector  224  Occ=0.000000D+00  E= 7.868876D+00

 Vector  225  Occ=0.000000D+00  E= 7.966193D+00

 Vector  226  Occ=0.000000D+00  E= 8.365685D+00

 Vector  227  Occ=0.000000D+00  E= 8.654087D+00

 Vector  228  Occ=0.000000D+00  E= 9.113490D+00

 Vector  229  Occ=0.000000D+00  E= 9.970710D+00

 Vector  230  Occ=0.000000D+00  E= 1.281070D+01

 Vector  231  Occ=0.000000D+00  E= 1.319567D+01

 Vector  232  Occ=0.000000D+00  E= 1.338419D+01

 Vector  233  Occ=0.000000D+00  E= 1.365661D+01

 Vector  234  Occ=0.000000D+00  E= 1.374656D+01

 Vector  235  Occ=0.000000D+00  E= 1.431344D+01

 Vector  236  Occ=0.000000D+00  E= 1.471799D+01

 Vector  237  Occ=0.000000D+00  E= 1.510455D+01

 Vector  238  Occ=0.000000D+00  E= 1.560906D+01

 Vector  239  Occ=0.000000D+00  E= 1.601246D+01

 Vector  240  Occ=0.000000D+00  E= 1.626780D+01

 Vector  241  Occ=0.000000D+00  E= 1.654798D+01

 Vector  242  Occ=0.000000D+00  E= 1.687118D+01

 Vector  243  Occ=0.000000D+00  E= 1.727740D+01

 Vector  244  Occ=0.000000D+00  E= 1.792232D+01

 Vector  245  Occ=0.000000D+00  E= 2.656654D+01

     Multipole analysis of the density
     ---------------------------------

     L   x y z        total         alpha         beta         nuclear
     -   - - -        -----         -----         ----         -------
     0   0 0 0     -0.000000    -16.000000    -15.000000     31.000000

     1   1 0 0      0.248969      0.036360      0.129464      0.083145
     1   0 1 0      0.493990     -0.246478     -0.175434      0.915902
     1   0 0 1      0.414288     -3.436131     -4.187830      8.038249

     2   2 0 0    -16.477493    -18.256624    -16.835289     18.614420
     2   1 1 0     -0.434317    -17.784852    -15.654738     33.005273
     2   1 0 1      1.000327      1.505193      1.363200     -1.868065
     2   0 2 0    -16.736473    -40.225264    -36.207960     59.696751
     2   0 1 1      1.763467     -2.421126     -2.442932      6.627526

 Total times  cpu:       30.9s     wall:       33.2s
