 Output coordinates in angstroms (scale by  1.889725989 to convert to a.u.)

  No.       Tag          Charge          X              Y              Z
 ---- ---------------- ---------- -------------- -------------- --------------
    1 I                   53.0000     0.00000000     0.00000000     0.00000000

         Total DFT energy =    -4286.205135888350

                    DFT Final Alpha Molecular Orbital Analysis
                    ------------------------------------------

 Vector    1  Occ=1.000000D+00  E=-1.274246D+03

 Vector   53  Occ=0.000000D+00  E=-5.515971D+00

 Vector   54  Occ=0.000000D+00  E=-5.515971D+00

 Vector   55  Occ=0.000000D+00  E=-5.144667D+00

 Vector   56  Occ=0.000000D+00  E=-4.279101D+00

 Vector   57  Occ=0.000000D+00  E=-4.279101D+00

 Vector   58  Occ=0.000000D+00  E=-4.279101D+00

 Vector   59  Occ=0.000000D+00  E=-1.415402D+00

 Vector   60  Occ=0.000000D+00  E= 2.087331D+01

 Vector   61  Occ=0.000000D+00  E= 6.831374D+01

 Vector   62  Occ=0.000000D+00  E= 6.831374D+01

 Vector   63  Occ=0.000000D+00  E= 6.831374D+01

 Vector   64  Occ=0.000000D+00  E= 1.254410D+02

 Vector   65  Occ=0.000000D+00  E= 2.910893D+02

 Vector   66  Occ=0.000000D+00  E= 1.923042D+03

 Vector    1  Occ=1.000000D+00  E= 0.000000D+00

 Vector    2  Occ=1.000000D+00  E= 0.000000D+00

 Vector    3  Occ=1.000000D+00  E= 0.000000D+00

 Vector    4  Occ=1.000000D+00  E= 0.000000D+00

 Vector    5  Occ=1.000000D+00  E= 0.000000D+00

 Vector    6  Occ=1.000000D+00  E= 0.000000D+00

 Vector    7  Occ=1.000000D+00  E= 0.000000D+00

 Vector    8  Occ=1.000000D+00  E= 0.000000D+00

 Vector    9  Occ=1.000000D+00  E= 0.000000D+00

 Vector   10  Occ=1.000000D+00  E= 0.000000D+00

 Vector   11  Occ=1.000000D+00  E= 0.000000D+00

 Vector   12  Occ=1.000000D+00  E= 0.000000D+00

 Vector   13  Occ=1.000000D+00  E= 0.000000D+00

 Vector   14  Occ=1.000000D+00  E= 0.000000D+00

 Vector   15  Occ=1.000000D+00  E= 0.000000D+00

 Vector   16  Occ=1.000000D+00  E= 0.000000D+00

 Vector   17  Occ=1.000000D+00  E= 0.000000D+00

 Vector   18  Occ=1.000000D+00  E= 0.000000D+00

 Vector   19  Occ=1.000000D+00  E= 0.000000D+00

 Vector   20  Occ=1.000000D+00  E= 0.000000D+00

 Vector   21  Occ=1.000000D+00  E= 0.000000D+00

 Vector   22  Occ=1.000000D+00  E= 0.000000D+00

 Vector   23  Occ=1.000000D+00  E= 0.000000D+00

 Vector   24  Occ=1.000000D+00  E= 0.000000D+00

 Vector   25  Occ=1.000000D+00  E= 0.000000D+00

 Vector   26  Occ=1.000000D+00  E= 0.000000D+00

 Vector   27  Occ=0.000000D+00  E= 0.000000D+00

 Vector   28  Occ=0.000000D+00  E= 0.000000D+00

 Vector   29  Occ=0.000000D+00  E= 0.000000D+00

 Vector   30  Occ=0.000000D+00  E= 0.000000D+00

 Vector   31  Occ=0.000000D+00  E= 0.000000D+00

 Vector   32  Occ=0.000000D+00  E= 0.000000D+00

 Vector   33  Occ=0.000000D+00  E= 0.000000D+00

 Vector   34  Occ=0.000000D+00  E= 0.000000D+00

 Vector   35  Occ=0.000000D+00  E= 0.000000D+00

 Vector   36  Occ=0.000000D+00  E= 0.000000D+00

 Vector   37  Occ=0.000000D+00  E= 0.000000D+00

 Vector   38  Occ=0.000000D+00  E= 0.000000D+00

 Vector   39  Occ=0.000000D+00  E= 0.000000D+00

 Vector   40  Occ=0.000000D+00  E= 0.000000D+00

 Vector   41  Occ=0.000000D+00  E= 0.000000D+00

 Vector   42  Occ=0.000000D+00  E= 0.000000D+00

 Vector   43  Occ=0.000000D+00  E= 0.000000D+00

 Vector   44  Occ=0.000000D+00  E= 0.000000D+00

 Vector   45  Occ=0.000000D+00  E= 0.000000D+00

 Vector   46  Occ=0.000000D+00  E= 0.000000D+00

 Vector   47  Occ=0.000000D+00  E= 0.000000D+00

 Vector   48  Occ=0.000000D+00  E= 0.000000D+00

 Vector   49  Occ=0.000000D+00  E= 0.000000D+00

 Vector   50  Occ=0.000000D+00  E= 0.000000D+00

 Vector   51  Occ=0.000000D+00  E= 0.000000D+00

 Vector   52  Occ=0.000000D+00  E= 0.000000D+00

 Vector   53  Occ=0.000000D+00  E= 0.000000D+00

 Vector   54  Occ=0.000000D+00  E= 0.000000D+00

 Vector   55  Occ=0.000000D+00  E= 0.000000D+00

 Vector   56  Occ=0.000000D+00  E= 0.000000D+00

 Vector   57  Occ=0.000000D+00  E= 0.000000D+00

 Vector   58  Occ=0.000000D+00  E= 0.000000D+00

 Vector   59  Occ=0.000000D+00  E= 0.000000D+00

 Vector   60  Occ=0.000000D+00  E= 0.000000D+00

 Vector   61  Occ=0.000000D+00  E= 0.000000D+00

 Vector   62  Occ=0.000000D+00  E= 0.000000D+00

 Vector   63  Occ=0.000000D+00  E= 0.000000D+00

 Vector   64  Occ=0.000000D+00  E= 0.000000D+00

 Vector   65  Occ=0.000000D+00  E= 0.000000D+00

 Vector   66  Occ=0.000000D+00  E= 0.000000D+00

 Total times  cpu:        1.6s     wall:        1.9s
