         Total DFT energy =    -2574.225674293767
@ Step       Energy      Delta E   Gmax     Grms     Xrms     Xmax   Walltime
@ ---- ---------------- -------- -------- -------- -------- -------- --------
@    0   -2574.22567429  0.0D+00  0.63025  0.39846  0.00000  0.00000     21.6
         Total DFT energy =    -2574.389329580995
         Total DFT energy =    -2574.397999418464
@    1   -2574.39799942 -1.7D-01  0.12319  0.07788  0.13884  0.21960     48.7
         Total DFT energy =    -2574.409996614606
         Total DFT energy =    -2574.416278528925
@    2   -2574.41627853 -1.8D-02  0.02438  0.01541  0.07060  0.11167     73.4
         Total DFT energy =    -2574.417289495600
         Total DFT energy =    -2574.417415377356
@    3   -2574.41741538 -1.1D-03  0.00311  0.00196  0.02340  0.03701     91.3
         Total DFT energy =    -2574.417438046929
         Total DFT energy =    -2574.417438580742
@    4   -2574.41743858 -2.3D-05  0.00003  0.00002  0.00391  0.00618    102.0
         Total DFT energy =    -2574.417438589684

                       DFT Final Molecular Orbital Analysis
                       ------------------------------------

 Vector    1  Occ=2.000000D+00  E=-4.810570D+02

 Vector   15  Occ=2.000000D+00  E=-7.302072D-01

 Vector   16  Occ=2.000000D+00  E=-4.070521D-01

 Vector   17  Occ=2.000000D+00  E=-2.742308D-01

 Vector   18  Occ=2.000000D+00  E=-2.742308D-01

 Vector   19  Occ=0.000000D+00  E=-5.481444D-02

 Vector   20  Occ=0.000000D+00  E= 1.001587D-02

 Vector   21  Occ=0.000000D+00  E= 3.227422D-02

 Vector   22  Occ=0.000000D+00  E= 4.160729D-02

 Vector   23  Occ=0.000000D+00  E= 4.160730D-02

 Vector   24  Occ=0.000000D+00  E= 7.739260D-02

 Vector   25  Occ=0.000000D+00  E= 1.084391D-01

 Vector   26  Occ=0.000000D+00  E= 1.084391D-01

 Vector   27  Occ=0.000000D+00  E= 1.472502D-01

 Vector   28  Occ=0.000000D+00  E= 1.472508D-01

 Vector   29  Occ=0.000000D+00  E= 1.989668D-01

 Vector   30  Occ=0.000000D+00  E= 2.537473D-01

 Vector   31  Occ=0.000000D+00  E= 2.591279D-01

 Vector   32  Occ=0.000000D+00  E= 2.591279D-01

 Vector   33  Occ=0.000000D+00  E= 2.823931D-01

 Vector   34  Occ=0.000000D+00  E= 2.949281D-01

 Vector   35  Occ=0.000000D+00  E= 2.949281D-01

 Vector   36  Occ=0.000000D+00  E= 3.065481D-01

 Vector   37  Occ=0.000000D+00  E= 4.560261D-01

 Vector   38  Occ=0.000000D+00  E= 5.178781D-01

 Vector   39  Occ=0.000000D+00  E= 5.178781D-01

 Vector   40  Occ=0.000000D+00  E= 5.509937D-01

 Vector   41  Occ=0.000000D+00  E= 5.509957D-01

 Vector   42  Occ=0.000000D+00  E= 6.163890D-01

 Vector   43  Occ=0.000000D+00  E= 6.394575D-01

 Vector   44  Occ=0.000000D+00  E= 6.394576D-01

 Vector   45  Occ=0.000000D+00  E= 7.311974D-01

 Vector   46  Occ=0.000000D+00  E= 7.311974D-01

 Vector   47  Occ=0.000000D+00  E= 7.340792D-01

 Vector   48  Occ=0.000000D+00  E= 7.340792D-01

 Vector   49  Occ=0.000000D+00  E= 7.754313D-01

 Vector   50  Occ=0.000000D+00  E= 8.583188D-01

 Vector   51  Occ=0.000000D+00  E= 8.976786D-01

 Vector   52  Occ=0.000000D+00  E= 8.976786D-01

 Vector   53  Occ=0.000000D+00  E= 9.014625D-01

 Vector   54  Occ=0.000000D+00  E= 9.232312D-01

 Vector   55  Occ=0.000000D+00  E= 9.232312D-01

 Vector   56  Occ=0.000000D+00  E= 9.445587D-01

 Vector   57  Occ=0.000000D+00  E= 9.445588D-01

 Vector   58  Occ=0.000000D+00  E= 1.124019D+00

 Vector   59  Occ=0.000000D+00  E= 1.301026D+00

 Vector   60  Occ=0.000000D+00  E= 1.397740D+00

 Vector   61  Occ=0.000000D+00  E= 1.397740D+00

 Vector   62  Occ=0.000000D+00  E= 1.629914D+00

 Vector   63  Occ=0.000000D+00  E= 1.817673D+00

 Vector   64  Occ=0.000000D+00  E= 1.865659D+00

 Vector   65  Occ=0.000000D+00  E= 1.865659D+00

 Vector   66  Occ=0.000000D+00  E= 1.884984D+00

 Vector   67  Occ=0.000000D+00  E= 1.885002D+00

 Vector   68  Occ=0.000000D+00  E= 1.934389D+00

 Vector   69  Occ=0.000000D+00  E= 1.934389D+00

 Vector   70  Occ=0.000000D+00  E= 1.947948D+00

 Vector   71  Occ=0.000000D+00  E= 1.947949D+00

 Vector   72  Occ=0.000000D+00  E= 2.028124D+00

 Vector   73  Occ=0.000000D+00  E= 2.028124D+00

 Vector   74  Occ=0.000000D+00  E= 2.028801D+00

 Vector   75  Occ=0.000000D+00  E= 2.222943D+00

 Vector   76  Occ=0.000000D+00  E= 2.242445D+00

 Vector   77  Occ=0.000000D+00  E= 2.242445D+00

 Vector   78  Occ=0.000000D+00  E= 2.659614D+00

 Vector   79  Occ=0.000000D+00  E= 3.066398D+00

 Vector   80  Occ=0.000000D+00  E= 3.508933D+00

 Vector   81  Occ=0.000000D+00  E= 3.508933D+00

 Vector   82  Occ=0.000000D+00  E= 3.816620D+00

 Vector   83  Occ=0.000000D+00  E= 3.816620D+00

 Vector   84  Occ=0.000000D+00  E= 3.986356D+00

 Vector   85  Occ=0.000000D+00  E= 3.986356D+00

 Vector   86  Occ=0.000000D+00  E= 4.000879D+00

 Vector   87  Occ=0.000000D+00  E= 4.353137D+00

 Vector   88  Occ=0.000000D+00  E= 4.353137D+00

 Vector   89  Occ=0.000000D+00  E= 4.371814D+00

 Vector   90  Occ=0.000000D+00  E= 4.847691D+00

 Vector   91  Occ=0.000000D+00  E= 5.247688D+00

 Vector   92  Occ=0.000000D+00  E= 5.729176D+00

 Vector   93  Occ=0.000000D+00  E= 1.007842D+01

 Vector   94  Occ=0.000000D+00  E= 7.772699D+01

     Multipole analysis of the density
     ---------------------------------

     L   x y z        total         alpha         beta         nuclear
     -   - - -        -----         -----         ----         -------
     0   0 0 0     -0.000000    -18.000000    -18.000000     36.000000

     1   1 0 0      0.296685      5.652355      5.652355    -11.008025
     1   0 1 0      0.007685      0.146404      0.146404     -0.285123
     1   0 0 1     -0.132169     -2.518042     -2.518042      4.903915

     2   2 0 0    -12.541837    -10.931050    -10.931050      9.320262
     2   1 1 0      0.060654     -0.090377     -0.090377      0.241408
     2   1 0 1     -1.043205      1.554418      1.554418     -4.152041
     2   0 2 0    -14.881992     -7.444123     -7.444123      0.006253
     2   0 1 1     -0.027020      0.040262      0.040262     -0.107544

         Total DFT energy =  -2574.417438589684
@    5   -2574.41743859 -8.9D-09  0.00002  0.00001  0.00004  0.00007    107.1
@    5   -2574.41743859 -8.9D-09  0.00002  0.00001  0.00004  0.00007    107.1

 Output coordinates in angstroms (scale by  1.889725989 to convert to a.u.)

  No.       Tag          Charge          X              Y              Z
 ---- ---------------- ---------- -------------- -------------- --------------
    1 Br                  35.0000    -0.19818821    -0.00513335     0.08828996
    2 H                    1.0000     1.11139095     0.02878657    -0.49510845

 Total times  cpu:      105.7s     wall:      107.2s
