 Output coordinates in angstroms (scale by  1.889725989 to convert to a.u.)

  No.       Tag          Charge          X              Y              Z
 ---- ---------------- ---------- -------------- -------------- --------------
    1 P                   15.0000     0.00016271    -0.00062972    -0.03371994
    2 O                    8.0000    -0.00147621     1.52022332    -0.55910011
    3 O                    8.0000     1.31267574    -0.75474270    -0.57897002
    4 O                    8.0000     0.00482597    -0.01336791     1.57534523
    5 O                    8.0000    -1.31526221    -0.75473398    -0.57191515

         Total DFT energy =     -641.952523714762

                    DFT Final Alpha Molecular Orbital Analysis
                    ------------------------------------------

 Vector    1  Occ=1.000000D+00  E=-7.601435D+01

 Vector  200  Occ=0.000000D+00  E= 5.494015D+00

 Vector  201  Occ=0.000000D+00  E= 5.497808D+00

 Vector  202  Occ=0.000000D+00  E= 5.497849D+00

 Vector  203  Occ=0.000000D+00  E= 5.805943D+00

 Vector  204  Occ=0.000000D+00  E= 5.939370D+00

 Vector  205  Occ=0.000000D+00  E= 5.939525D+00

 Vector  206  Occ=0.000000D+00  E= 5.939741D+00

 Vector  207  Occ=0.000000D+00  E= 6.424203D+00

 Vector  208  Occ=0.000000D+00  E= 6.426875D+00

 Vector  209  Occ=0.000000D+00  E= 6.442220D+00

 Vector  210  Occ=0.000000D+00  E= 6.442974D+00

 Vector  211  Occ=0.000000D+00  E= 6.457141D+00

 Vector  212  Occ=0.000000D+00  E= 6.457249D+00

 Vector  213  Occ=0.000000D+00  E= 6.457861D+00

 Vector  214  Occ=0.000000D+00  E= 6.475243D+00

 Vector  215  Occ=0.000000D+00  E= 6.475357D+00

 Vector  216  Occ=0.000000D+00  E= 6.475499D+00

 Vector  217  Occ=0.000000D+00  E= 6.602473D+00

 Vector  218  Occ=0.000000D+00  E= 6.648632D+00

 Vector  219  Occ=0.000000D+00  E= 6.648785D+00

 Vector  220  Occ=0.000000D+00  E= 6.648926D+00

 Vector  221  Occ=0.000000D+00  E= 6.649039D+00

 Vector  222  Occ=0.000000D+00  E= 6.649099D+00

 Vector  223  Occ=0.000000D+00  E= 6.650369D+00

 Vector  224  Occ=0.000000D+00  E= 6.685382D+00

 Vector  225  Occ=0.000000D+00  E= 6.686779D+00

 Vector  226  Occ=0.000000D+00  E= 6.751550D+00

 Vector  227  Occ=0.000000D+00  E= 6.752782D+00

 Vector  228  Occ=0.000000D+00  E= 6.752917D+00

 Vector  229  Occ=0.000000D+00  E= 6.796977D+00

 Vector  230  Occ=0.000000D+00  E= 6.797636D+00

 Vector  231  Occ=0.000000D+00  E= 6.797751D+00

 Vector  232  Occ=0.000000D+00  E= 6.833649D+00

 Vector  233  Occ=0.000000D+00  E= 6.833790D+00

 Vector  234  Occ=0.000000D+00  E= 6.834751D+00

 Vector  235  Occ=0.000000D+00  E= 6.886937D+00

 Vector  236  Occ=0.000000D+00  E= 6.887467D+00

 Vector  237  Occ=0.000000D+00  E= 6.939651D+00

 Vector  238  Occ=0.000000D+00  E= 6.939762D+00

 Vector  239  Occ=0.000000D+00  E= 6.939823D+00

 Vector  240  Occ=0.000000D+00  E= 6.983342D+00

 Vector  241  Occ=0.000000D+00  E= 6.984390D+00

 Vector  242  Occ=0.000000D+00  E= 6.984433D+00

 Vector  243  Occ=0.000000D+00  E= 7.090573D+00

 Vector  244  Occ=0.000000D+00  E= 7.129579D+00

 Vector  245  Occ=0.000000D+00  E= 7.129662D+00

 Vector  246  Occ=0.000000D+00  E= 7.132981D+00

 Vector  247  Occ=0.000000D+00  E= 7.283645D+00

 Vector  248  Occ=0.000000D+00  E= 7.288271D+00

 Vector  249  Occ=0.000000D+00  E= 7.288568D+00

 Vector  250  Occ=0.000000D+00  E= 7.469535D+00

 Vector  251  Occ=0.000000D+00  E= 7.474753D+00

 Vector  252  Occ=0.000000D+00  E= 7.538418D+00

 Vector  253  Occ=0.000000D+00  E= 7.584334D+00

 Vector  254  Occ=0.000000D+00  E= 7.584574D+00

 Vector  255  Occ=0.000000D+00  E= 7.584584D+00

 Vector  256  Occ=0.000000D+00  E= 8.392370D+00

 Vector  257  Occ=0.000000D+00  E= 8.392719D+00

 Vector  258  Occ=0.000000D+00  E= 8.392807D+00

 Vector  259  Occ=0.000000D+00  E= 1.211043D+01

 Vector  260  Occ=0.000000D+00  E= 1.234847D+01

 Vector  261  Occ=0.000000D+00  E= 1.235032D+01

 Vector  262  Occ=0.000000D+00  E= 1.235118D+01

 Vector  263  Occ=0.000000D+00  E= 1.378104D+01

 Vector  264  Occ=0.000000D+00  E= 1.378112D+01

 Vector  265  Occ=0.000000D+00  E= 1.378331D+01

 Vector  266  Occ=0.000000D+00  E= 1.381407D+01

 Vector  267  Occ=0.000000D+00  E= 1.381808D+01

 Vector  268  Occ=0.000000D+00  E= 1.412915D+01

 Vector  269  Occ=0.000000D+00  E= 1.413156D+01

 Vector  270  Occ=0.000000D+00  E= 1.413176D+01

 Vector  271  Occ=0.000000D+00  E= 1.609771D+01

 Vector  272  Occ=0.000000D+00  E= 1.609867D+01

 Vector  273  Occ=0.000000D+00  E= 1.609934D+01

 Vector  274  Occ=0.000000D+00  E= 1.682861D+01

 Vector  275  Occ=0.000000D+00  E= 1.725884D+01

 Vector  276  Occ=0.000000D+00  E= 1.725946D+01

 Vector  277  Occ=0.000000D+00  E= 1.725972D+01

 Vector  278  Occ=0.000000D+00  E= 1.761134D+01

 Vector  279  Occ=0.000000D+00  E= 1.908329D+01

     Multipole analysis of the density
     ---------------------------------

     L   x y z        total         alpha         beta         nuclear
     -   - - -        -----         -----         ----         -------
     0   0 0 0     -2.000000    -25.000000    -24.000000     47.000000

     1   1 0 0     -0.001287     -0.008767     -0.008671      0.016151
     1   0 1 0      0.002080      0.030532      0.029026     -0.057478
     1   0 0 1      0.127590      1.590721      1.528153     -2.991284

     2   2 0 0    -40.125001    -71.207244    -67.566488     98.648732
     2   1 1 0      0.001414      0.006006      0.005927     -0.010520
     2   1 0 1     -0.001148     -0.009924     -0.009397      0.018173
     2   0 2 0    -40.263044    -71.144052    -67.695174     98.576182
     2   0 1 1     -0.096360      0.054082     -0.083047     -0.067396

 Total times  cpu:       72.1s     wall:       74.1s
