         Total DFT energy =      -99.801037368591

 Vector   31  Occ=0.000000D+00  E= 2.941067D+00

 Vector   32  Occ=0.000000D+00  E= 2.941067D+00

 Vector   33  Occ=0.000000D+00  E= 2.941067D+00

 Vector   34  Occ=0.000000D+00  E= 2.941067D+00

 Vector   35  Occ=0.000000D+00  E= 5.002092D+00

 Vector   36  Occ=0.000000D+00  E= 7.043064D+00

 Vector   37  Occ=0.000000D+00  E= 7.043064D+00

 Vector   38  Occ=0.000000D+00  E= 7.043064D+00

 Vector   39  Occ=0.000000D+00  E= 8.554677D+00

 Vector   40  Occ=0.000000D+00  E= 8.554677D+00

 Vector   41  Occ=0.000000D+00  E= 8.554677D+00

 Vector   42  Occ=0.000000D+00  E= 8.554677D+00

 Vector   43  Occ=0.000000D+00  E= 8.554677D+00

 Vector   44  Occ=0.000000D+00  E= 8.554677D+00

 Vector   45  Occ=0.000000D+00  E= 8.554677D+00

 Vector   46  Occ=0.000000D+00  E= 8.939927D+00

 Vector   47  Occ=0.000000D+00  E= 8.939927D+00

 Vector   48  Occ=0.000000D+00  E= 8.939927D+00

 Vector   49  Occ=0.000000D+00  E= 8.939927D+00

 Vector   50  Occ=0.000000D+00  E= 8.939927D+00

 Vector   51  Occ=0.000000D+00  E= 1.412828D+01

 Vector   52  Occ=0.000000D+00  E= 1.732869D+01

 Vector   53  Occ=0.000000D+00  E= 1.732869D+01

 Vector   54  Occ=0.000000D+00  E= 1.732869D+01

 Vector   55  Occ=0.000000D+00  E= 2.271324D+01

@ Step       Energy      Delta E   Gmax     Grms     Xrms     Xmax   Walltime
@ ---- ---------------- -------- -------- -------- -------- -------- --------
@    0     -99.80103737  0.0D+00  0.00000  0.00000  0.00000  0.00000      5.3
         Total DFT energy =      -99.801037745105

                       DFT Final Molecular Orbital Analysis
                       ------------------------------------

 Vector    1  Occ=2.000000D+00  E=-2.382904D+01

 Vector    2  Occ=2.000000D+00  E=-6.131234D-01

 Vector    3  Occ=2.000000D+00  E= 5.697034D-02

 Vector    4  Occ=2.000000D+00  E= 5.697034D-02

 Vector    5  Occ=2.000000D+00  E= 5.697034D-02

 Vector    6  Occ=0.000000D+00  E= 2.999136D-01

 Vector    7  Occ=0.000000D+00  E= 3.298200D-01

 Vector    8  Occ=0.000000D+00  E= 3.298200D-01

 Vector    9  Occ=0.000000D+00  E= 3.298200D-01

 Vector   10  Occ=0.000000D+00  E= 9.305311D-01

 Vector   11  Occ=0.000000D+00  E= 1.006113D+00

 Vector   12  Occ=0.000000D+00  E= 1.006113D+00

 Vector   13  Occ=0.000000D+00  E= 1.006113D+00

 Vector   14  Occ=0.000000D+00  E= 1.006113D+00

 Vector   15  Occ=0.000000D+00  E= 1.006113D+00

 Vector   16  Occ=0.000000D+00  E= 1.047110D+00

 Vector   17  Occ=0.000000D+00  E= 1.047110D+00

 Vector   18  Occ=0.000000D+00  E= 1.047110D+00

 Vector   19  Occ=0.000000D+00  E= 2.720135D+00

 Vector   20  Occ=0.000000D+00  E= 2.720135D+00

 Vector   21  Occ=0.000000D+00  E= 2.720135D+00

 Vector   22  Occ=0.000000D+00  E= 2.844044D+00

 Vector   23  Occ=0.000000D+00  E= 2.846786D+00

 Vector   24  Occ=0.000000D+00  E= 2.846786D+00

 Vector   25  Occ=0.000000D+00  E= 2.846786D+00

 Vector   26  Occ=0.000000D+00  E= 2.846786D+00

 Vector   27  Occ=0.000000D+00  E= 2.846786D+00

 Vector   28  Occ=0.000000D+00  E= 2.941067D+00

 Vector   29  Occ=0.000000D+00  E= 2.941067D+00

 Vector   30  Occ=0.000000D+00  E= 2.941067D+00

 Vector   31  Occ=0.000000D+00  E= 2.941067D+00

 Vector   32  Occ=0.000000D+00  E= 2.941067D+00

 Vector   33  Occ=0.000000D+00  E= 2.941067D+00

 Vector   34  Occ=0.000000D+00  E= 2.941067D+00

 Vector   35  Occ=0.000000D+00  E= 5.002092D+00

 Vector   36  Occ=0.000000D+00  E= 7.043064D+00

 Vector   37  Occ=0.000000D+00  E= 7.043064D+00

 Vector   38  Occ=0.000000D+00  E= 7.043064D+00

 Vector   39  Occ=0.000000D+00  E= 8.554677D+00

 Vector   40  Occ=0.000000D+00  E= 8.554677D+00

 Vector   41  Occ=0.000000D+00  E= 8.554677D+00

 Vector   42  Occ=0.000000D+00  E= 8.554677D+00

 Vector   43  Occ=0.000000D+00  E= 8.554677D+00

 Vector   44  Occ=0.000000D+00  E= 8.554677D+00

 Vector   45  Occ=0.000000D+00  E= 8.554677D+00

 Vector   46  Occ=0.000000D+00  E= 8.939927D+00

 Vector   47  Occ=0.000000D+00  E= 8.939927D+00

 Vector   48  Occ=0.000000D+00  E= 8.939927D+00

 Vector   49  Occ=0.000000D+00  E= 8.939927D+00

 Vector   50  Occ=0.000000D+00  E= 8.939927D+00

 Vector   51  Occ=0.000000D+00  E= 1.412828D+01

 Vector   52  Occ=0.000000D+00  E= 1.732869D+01

 Vector   53  Occ=0.000000D+00  E= 1.732869D+01

 Vector   54  Occ=0.000000D+00  E= 1.732869D+01

 Vector   55  Occ=0.000000D+00  E= 2.271324D+01

         Total DFT energy =    -99.801037745105
@    1     -99.80103775 -3.8D-07  0.00000  0.00000  0.00000  0.00000      5.5
@    1     -99.80103775 -3.8D-07  0.00000  0.00000  0.00000  0.00000      5.5

 Output coordinates in angstroms (scale by  1.889725989 to convert to a.u.)

  No.       Tag          Charge          X              Y              Z
 ---- ---------------- ---------- -------------- -------------- --------------
    1 F                    9.0000     0.00000000     0.00000000     0.00000000

 Total times  cpu:        5.1s     wall:        5.5s
