 Output coordinates in angstroms (scale by  1.889725989 to convert to a.u.)

  No.       Tag          Charge          X              Y              Z
 ---- ---------------- ---------- -------------- -------------- --------------
    1 C                    6.0000    -0.03433165    -0.02554049    -0.06683711
    2 C                    6.0000     0.02658507     0.03936301     1.49309442
    3 O                    8.0000    -0.22529584     1.14854729    -0.50087254
    4 O                    8.0000     0.09676324    -1.11228387    -0.66420303
    5 H                    1.0000     0.84827048     0.69326892     1.80485718
    6 H                    1.0000    -0.91735803     0.43489589     1.88389379
    7 Cl                  17.0000     0.29981173    -1.54394876     2.42102529

         Total DFT energy =     -687.677740494632

                    DFT Final Alpha Molecular Orbital Analysis
                    ------------------------------------------

 Vector    1  Occ=1.000000D+00  E=-1.007396D+02

 Vector  250  Occ=0.000000D+00  E= 4.134862D+00

 Vector  251  Occ=0.000000D+00  E= 4.164620D+00

 Vector  252  Occ=0.000000D+00  E= 4.203874D+00

 Vector  253  Occ=0.000000D+00  E= 4.218611D+00

 Vector  254  Occ=0.000000D+00  E= 4.358589D+00

 Vector  255  Occ=0.000000D+00  E= 4.396817D+00

 Vector  256  Occ=0.000000D+00  E= 4.414676D+00

 Vector  257  Occ=0.000000D+00  E= 4.489726D+00

 Vector  258  Occ=0.000000D+00  E= 4.562110D+00

 Vector  259  Occ=0.000000D+00  E= 4.611160D+00

 Vector  260  Occ=0.000000D+00  E= 4.642629D+00

 Vector  261  Occ=0.000000D+00  E= 4.760310D+00

 Vector  262  Occ=0.000000D+00  E= 4.864120D+00

 Vector  263  Occ=0.000000D+00  E= 4.875942D+00

 Vector  264  Occ=0.000000D+00  E= 4.938404D+00

 Vector  265  Occ=0.000000D+00  E= 4.945799D+00

 Vector  266  Occ=0.000000D+00  E= 5.118496D+00

 Vector  267  Occ=0.000000D+00  E= 5.128169D+00

 Vector  268  Occ=0.000000D+00  E= 5.165863D+00

 Vector  269  Occ=0.000000D+00  E= 5.187454D+00

 Vector  270  Occ=0.000000D+00  E= 5.190153D+00

 Vector  271  Occ=0.000000D+00  E= 5.323874D+00

 Vector  272  Occ=0.000000D+00  E= 5.466929D+00

 Vector  273  Occ=0.000000D+00  E= 5.494013D+00

 Vector  274  Occ=0.000000D+00  E= 5.559284D+00

 Vector  275  Occ=0.000000D+00  E= 5.690011D+00

 Vector  276  Occ=0.000000D+00  E= 5.716990D+00

 Vector  277  Occ=0.000000D+00  E= 5.788600D+00

 Vector  278  Occ=0.000000D+00  E= 6.015159D+00

 Vector  279  Occ=0.000000D+00  E= 6.062968D+00

 Vector  280  Occ=0.000000D+00  E= 6.099144D+00

 Vector  281  Occ=0.000000D+00  E= 6.125534D+00

 Vector  282  Occ=0.000000D+00  E= 6.247527D+00

 Vector  283  Occ=0.000000D+00  E= 6.281953D+00

 Vector  284  Occ=0.000000D+00  E= 6.291548D+00

 Vector  285  Occ=0.000000D+00  E= 6.315635D+00

 Vector  286  Occ=0.000000D+00  E= 6.399130D+00

 Vector  287  Occ=0.000000D+00  E= 6.414954D+00

 Vector  288  Occ=0.000000D+00  E= 6.480725D+00

 Vector  289  Occ=0.000000D+00  E= 6.486832D+00

 Vector  290  Occ=0.000000D+00  E= 6.541737D+00

 Vector  291  Occ=0.000000D+00  E= 6.600121D+00

 Vector  292  Occ=0.000000D+00  E= 6.607190D+00

 Vector  293  Occ=0.000000D+00  E= 6.631168D+00

 Vector  294  Occ=0.000000D+00  E= 6.664116D+00

 Vector  295  Occ=0.000000D+00  E= 6.832846D+00

 Vector  296  Occ=0.000000D+00  E= 6.953315D+00

 Vector  297  Occ=0.000000D+00  E= 6.969202D+00

 Vector  298  Occ=0.000000D+00  E= 7.037733D+00

 Vector  299  Occ=0.000000D+00  E= 7.116907D+00

 Vector  300  Occ=0.000000D+00  E= 7.182708D+00

 Vector  301  Occ=0.000000D+00  E= 7.192014D+00

 Vector  302  Occ=0.000000D+00  E= 7.252133D+00

 Vector  303  Occ=0.000000D+00  E= 7.432383D+00

 Vector  304  Occ=0.000000D+00  E= 7.527034D+00

 Vector  305  Occ=0.000000D+00  E= 7.558190D+00

 Vector  306  Occ=0.000000D+00  E= 7.671001D+00

 Vector  307  Occ=0.000000D+00  E= 7.932792D+00

 Vector  308  Occ=0.000000D+00  E= 7.974220D+00

 Vector  309  Occ=0.000000D+00  E= 8.339882D+00

 Vector  310  Occ=0.000000D+00  E= 8.400714D+00

 Vector  311  Occ=0.000000D+00  E= 8.863526D+00

 Vector  312  Occ=0.000000D+00  E= 9.383277D+00

 Vector  313  Occ=0.000000D+00  E= 9.657284D+00

 Vector  314  Occ=0.000000D+00  E= 9.806046D+00

 Vector  315  Occ=0.000000D+00  E= 9.899662D+00

 Vector  316  Occ=0.000000D+00  E= 1.010190D+01

 Vector  317  Occ=0.000000D+00  E= 1.187547D+01

 Vector  318  Occ=0.000000D+00  E= 1.348708D+01

 Vector  319  Occ=0.000000D+00  E= 1.354603D+01

 Vector  320  Occ=0.000000D+00  E= 1.408112D+01

 Vector  321  Occ=0.000000D+00  E= 1.439337D+01

 Vector  322  Occ=0.000000D+00  E= 1.501016D+01

 Vector  323  Occ=0.000000D+00  E= 1.517802D+01

 Vector  324  Occ=0.000000D+00  E= 1.655402D+01

 Vector  325  Occ=0.000000D+00  E= 1.664684D+01

 Vector  326  Occ=0.000000D+00  E= 1.856088D+01

 Vector  327  Occ=0.000000D+00  E= 1.924206D+01

 Vector  328  Occ=0.000000D+00  E= 2.790517D+01

 Vector  329  Occ=0.000000D+00  E= 3.036353D+01

     Multipole analysis of the density
     ---------------------------------

     L   x y z        total         alpha         beta         nuclear
     -   - - -        -----         -----         ----         -------
     0   0 0 0      0.000000    -24.000000    -23.000000     47.000000

     1   1 0 0     -0.014919     -3.719459     -3.765493      7.470033
     1   0 1 0      0.390249     23.644702     23.508558    -46.763011
     1   0 0 1      0.931204    -41.193966    -41.179848     83.305018

     2   2 0 0    -25.279788    -19.280434    -18.789021     12.789667
     2   1 1 0      0.580906     19.557509     18.875471    -37.852074
     2   1 0 1     -0.239400    -23.166243    -22.721382     45.648225
     2   0 2 0    -28.962158   -126.906893   -122.239517    220.184252
     2   0 1 1      1.246471    108.113369    106.695187   -213.562085

 Total times  cpu:      176.7s     wall:      180.1s
