 Output coordinates in angstroms (scale by  1.889725989 to convert to a.u.)

  No.       Tag          Charge          X              Y              Z
 ---- ---------------- ---------- -------------- -------------- --------------
    1 O                    8.0000    -0.00577172     0.00170502     0.00237419
    2 H                    1.0000    -0.87508528     0.25850798     0.35996481

         Total DFT energy =      -75.683579877235

                    DFT Final Alpha Molecular Orbital Analysis
                    ------------------------------------------

 Vector    1  Occ=1.000000D+00  E=-1.883162D+01

 Vector    1  Occ=1.000000D+00  E=-1.880802D+01

 Vector    2  Occ=1.000000D+00  E=-8.771153D-01

 Vector    3  Occ=1.000000D+00  E=-4.065893D-01

 Vector    4  Occ=1.000000D+00  E=-2.710310D-01

 Vector    5  Occ=0.000000D+00  E=-2.372032D-01

 Vector    6  Occ=0.000000D+00  E=-2.507139D-02

 Vector    7  Occ=0.000000D+00  E= 6.581192D-02

 Vector    8  Occ=0.000000D+00  E= 8.756209D-02

 Vector    9  Occ=0.000000D+00  E= 9.693766D-02

 Vector   10  Occ=0.000000D+00  E= 9.845706D-02

 Vector   11  Occ=0.000000D+00  E= 1.608444D-01

 Vector   12  Occ=0.000000D+00  E= 1.882383D-01

 Vector   13  Occ=0.000000D+00  E= 1.929262D-01

 Vector   14  Occ=0.000000D+00  E= 2.940317D-01

 Vector   15  Occ=0.000000D+00  E= 3.920601D-01

 Vector   16  Occ=0.000000D+00  E= 4.874891D-01

 Vector   17  Occ=0.000000D+00  E= 4.918036D-01

 Vector   18  Occ=0.000000D+00  E= 5.583777D-01

 Vector   19  Occ=0.000000D+00  E= 5.665060D-01

 Vector   20  Occ=0.000000D+00  E= 5.667011D-01

 Vector   21  Occ=0.000000D+00  E= 5.878582D-01

 Vector   22  Occ=0.000000D+00  E= 5.953083D-01

 Vector   23  Occ=0.000000D+00  E= 5.968076D-01

 Vector   24  Occ=0.000000D+00  E= 7.947737D-01

 Vector   25  Occ=0.000000D+00  E= 7.960639D-01

 Vector   26  Occ=0.000000D+00  E= 7.962942D-01

 Vector   27  Occ=0.000000D+00  E= 7.989405D-01

 Vector   28  Occ=0.000000D+00  E= 8.115748D-01

 Vector   29  Occ=0.000000D+00  E= 9.766556D-01

 Vector   30  Occ=0.000000D+00  E= 1.046733D+00

 Vector   31  Occ=0.000000D+00  E= 1.289979D+00

 Vector   32  Occ=0.000000D+00  E= 1.293489D+00

 Vector   33  Occ=0.000000D+00  E= 1.524838D+00

 Vector   34  Occ=0.000000D+00  E= 1.713212D+00

 Vector   35  Occ=0.000000D+00  E= 1.735524D+00

 Vector   36  Occ=0.000000D+00  E= 1.789545D+00

 Vector   37  Occ=0.000000D+00  E= 1.791029D+00

 Vector   38  Occ=0.000000D+00  E= 1.801379D+00

 Vector   39  Occ=0.000000D+00  E= 1.819659D+00

 Vector   40  Occ=0.000000D+00  E= 1.831577D+00

 Vector   41  Occ=0.000000D+00  E= 1.977900D+00

 Vector   42  Occ=0.000000D+00  E= 1.987010D+00

 Vector   43  Occ=0.000000D+00  E= 2.046490D+00

 Vector   44  Occ=0.000000D+00  E= 2.050010D+00

 Vector   45  Occ=0.000000D+00  E= 2.084106D+00

 Vector   46  Occ=0.000000D+00  E= 2.342875D+00

 Vector   47  Occ=0.000000D+00  E= 2.509826D+00

 Vector   48  Occ=0.000000D+00  E= 2.516953D+00

 Vector   49  Occ=0.000000D+00  E= 2.675814D+00

 Vector   50  Occ=0.000000D+00  E= 3.524763D+00

 Vector   51  Occ=0.000000D+00  E= 3.677463D+00

 Vector   52  Occ=0.000000D+00  E= 3.678675D+00

 Vector   53  Occ=0.000000D+00  E= 3.701401D+00

 Vector   54  Occ=0.000000D+00  E= 3.915424D+00

 Vector   55  Occ=0.000000D+00  E= 3.915706D+00

 Vector   56  Occ=0.000000D+00  E= 4.534917D+00

 Vector   57  Occ=0.000000D+00  E= 4.565435D+00

 Vector   58  Occ=0.000000D+00  E= 4.574321D+00

 Vector   59  Occ=0.000000D+00  E= 5.008984D+00

 Vector   60  Occ=0.000000D+00  E= 5.036178D+00

 Vector   61  Occ=0.000000D+00  E= 5.129895D+00

 Vector   62  Occ=0.000000D+00  E= 5.522448D+00

 Vector   63  Occ=0.000000D+00  E= 5.942379D+00

 Vector   64  Occ=0.000000D+00  E= 5.947546D+00

 Vector   65  Occ=0.000000D+00  E= 6.071928D+00

 Vector   66  Occ=0.000000D+00  E= 6.081287D+00

 Vector   67  Occ=0.000000D+00  E= 6.328859D+00

 Vector   68  Occ=0.000000D+00  E= 6.413151D+00

 Vector   69  Occ=0.000000D+00  E= 6.436414D+00

 Vector   70  Occ=0.000000D+00  E= 6.599606D+00

 Vector   71  Occ=0.000000D+00  E= 6.614861D+00

 Vector   72  Occ=0.000000D+00  E= 6.618435D+00

 Vector   73  Occ=0.000000D+00  E= 6.645011D+00

 Vector   74  Occ=0.000000D+00  E= 7.517394D+00

 Vector   75  Occ=0.000000D+00  E= 8.267534D+00

 Vector   76  Occ=0.000000D+00  E= 1.276576D+01

 Vector   77  Occ=0.000000D+00  E= 1.278918D+01

 Vector   78  Occ=0.000000D+00  E= 1.284285D+01

 Vector   79  Occ=0.000000D+00  E= 1.436422D+01

 Vector   80  Occ=0.000000D+00  E= 1.661691D+01

     Multipole analysis of the density
     ---------------------------------

     L   x y z        total         alpha         beta         nuclear
     -   - - -        -----         -----         ----         -------
     0   0 0 0     -0.000000     -5.000000     -4.000000      9.000000

     1   1 0 0     -0.557530      0.612753      0.570644     -1.740927
     1   0 1 0      0.164699     -0.181013     -0.168573      0.514285
     1   0 0 1      0.229339     -0.252055     -0.234734      0.716127

     2   2 0 0     -3.497543     -3.352419     -2.880704      2.735581
     2   1 1 0     -0.171093      0.184910      0.452112     -0.808115
     2   1 0 1     -0.322231      0.255771      0.547275     -1.125276
     2   0 2 0     -4.712962     -2.795087     -2.156600      0.238724
     2   0 1 1      0.588405     -0.065511      0.321500      0.332417

 Total times  cpu:        2.8s     wall:       19.4s
