 Output coordinates in angstroms (scale by  1.889725989 to convert to a.u.)

  No.       Tag          Charge          X              Y              Z
 ---- ---------------- ---------- -------------- -------------- --------------
    1 Br                  35.0000     0.00000000     0.00000000     0.00000000

         Total DFT energy =    -2573.769520340599

                    DFT Final Alpha Molecular Orbital Analysis
                    ------------------------------------------

 Vector    1  Occ=1.000000D+00  E=-4.810840D+02

 Vector   59  Occ=0.000000D+00  E= 1.922578D+00

 Vector   60  Occ=0.000000D+00  E= 1.922578D+00

 Vector   61  Occ=0.000000D+00  E= 2.195799D+00

 Vector   62  Occ=0.000000D+00  E= 2.224340D+00

 Vector   63  Occ=0.000000D+00  E= 2.224340D+00

 Vector   64  Occ=0.000000D+00  E= 4.199106D+00

 Vector   65  Occ=0.000000D+00  E= 4.289617D+00

 Vector   66  Occ=0.000000D+00  E= 4.327167D+00

 Vector   67  Occ=0.000000D+00  E= 4.327167D+00

 Vector   68  Occ=0.000000D+00  E= 9.168271D+00

 Vector   69  Occ=0.000000D+00  E= 7.761138D+01

 Vector    1  Occ=1.000000D+00  E=-4.810820D+02

 Vector    2  Occ=1.000000D+00  E=-6.186720D+01

 Vector    3  Occ=1.000000D+00  E=-5.578277D+01

 Vector    4  Occ=1.000000D+00  E=-5.577820D+01

 Vector    5  Occ=1.000000D+00  E=-5.577820D+01

 Vector    6  Occ=1.000000D+00  E=-8.450992D+00

 Vector    7  Occ=1.000000D+00  E=-6.330067D+00

 Vector    8  Occ=1.000000D+00  E=-6.314108D+00

 Vector    9  Occ=1.000000D+00  E=-6.314108D+00

 Vector   10  Occ=1.000000D+00  E=-2.529971D+00

 Vector   11  Occ=1.000000D+00  E=-2.526591D+00

 Vector   12  Occ=1.000000D+00  E=-2.526591D+00

 Vector   13  Occ=1.000000D+00  E=-2.515465D+00

 Vector   14  Occ=1.000000D+00  E=-2.515465D+00

 Vector   15  Occ=1.000000D+00  E=-6.947167D-01

 Vector   16  Occ=1.000000D+00  E=-2.744188D-01

 Vector   17  Occ=1.000000D+00  E=-2.744188D-01

 Vector   18  Occ=0.000000D+00  E=-2.664539D-01

 Vector   19  Occ=0.000000D+00  E= 9.426594D-04

 Vector   20  Occ=0.000000D+00  E= 4.256163D-02

 Vector   21  Occ=0.000000D+00  E= 4.256164D-02

 Vector   22  Occ=0.000000D+00  E= 4.668979D-02

 Vector   23  Occ=0.000000D+00  E= 1.447994D-01

 Vector   24  Occ=0.000000D+00  E= 1.447994D-01

 Vector   25  Occ=0.000000D+00  E= 1.464930D-01

 Vector   26  Occ=0.000000D+00  E= 1.464930D-01

 Vector   27  Occ=0.000000D+00  E= 1.525805D-01

 Vector   28  Occ=0.000000D+00  E= 2.166134D-01

 Vector   29  Occ=0.000000D+00  E= 2.811478D-01

 Vector   30  Occ=0.000000D+00  E= 2.811478D-01

 Vector   31  Occ=0.000000D+00  E= 2.841975D-01

 Vector   32  Occ=0.000000D+00  E= 5.509027D-01

 Vector   33  Occ=0.000000D+00  E= 5.509027D-01

 Vector   34  Occ=0.000000D+00  E= 5.543590D-01

 Vector   35  Occ=0.000000D+00  E= 5.543590D-01

 Vector   36  Occ=0.000000D+00  E= 5.633166D-01

 Vector   37  Occ=0.000000D+00  E= 7.281385D-01

 Vector   38  Occ=0.000000D+00  E= 7.281385D-01

 Vector   39  Occ=0.000000D+00  E= 7.293666D-01

 Vector   40  Occ=0.000000D+00  E= 7.293666D-01

 Vector   41  Occ=0.000000D+00  E= 7.340047D-01

 Vector   42  Occ=0.000000D+00  E= 7.340047D-01

 Vector   43  Occ=0.000000D+00  E= 7.374713D-01

 Vector   44  Occ=0.000000D+00  E= 8.317927D-01

 Vector   45  Occ=0.000000D+00  E= 9.028652D-01

 Vector   46  Occ=0.000000D+00  E= 9.028652D-01

 Vector   47  Occ=0.000000D+00  E= 9.066838D-01

 Vector   48  Occ=0.000000D+00  E= 1.542885D+00

 Vector   49  Occ=0.000000D+00  E= 1.872079D+00

 Vector   50  Occ=0.000000D+00  E= 1.872079D+00

 Vector   51  Occ=0.000000D+00  E= 1.872153D+00

 Vector   52  Occ=0.000000D+00  E= 1.872153D+00

 Vector   53  Occ=0.000000D+00  E= 1.876640D+00

 Vector   54  Occ=0.000000D+00  E= 1.924562D+00

 Vector   55  Occ=0.000000D+00  E= 1.924562D+00

 Vector   56  Occ=0.000000D+00  E= 1.925326D+00

 Vector   57  Occ=0.000000D+00  E= 1.925326D+00

 Vector   58  Occ=0.000000D+00  E= 1.931179D+00

 Vector   59  Occ=0.000000D+00  E= 1.931179D+00

 Vector   60  Occ=0.000000D+00  E= 1.935590D+00

 Vector   61  Occ=0.000000D+00  E= 2.230960D+00

 Vector   62  Occ=0.000000D+00  E= 2.230960D+00

 Vector   63  Occ=0.000000D+00  E= 2.233210D+00

 Vector   64  Occ=0.000000D+00  E= 4.217329D+00

 Vector   65  Occ=0.000000D+00  E= 4.335885D+00

 Vector   66  Occ=0.000000D+00  E= 4.335885D+00

 Vector   67  Occ=0.000000D+00  E= 4.337594D+00

 Vector   68  Occ=0.000000D+00  E= 9.190734D+00

 Vector   69  Occ=0.000000D+00  E= 7.761391D+01

 Total times  cpu:       10.8s     wall:       11.1s
