         Total DFT energy =    -2573.897934294514

 Vector   59  Occ=0.000000D+00  E= 2.205820D+00

 Vector   60  Occ=0.000000D+00  E= 2.205820D+00

 Vector   61  Occ=0.000000D+00  E= 2.479796D+00

 Vector   62  Occ=0.000000D+00  E= 2.479796D+00

 Vector   63  Occ=0.000000D+00  E= 2.479796D+00

 Vector   64  Occ=0.000000D+00  E= 4.510795D+00

 Vector   65  Occ=0.000000D+00  E= 4.603980D+00

 Vector   66  Occ=0.000000D+00  E= 4.603980D+00

 Vector   67  Occ=0.000000D+00  E= 4.603980D+00

 Vector   68  Occ=0.000000D+00  E= 9.437534D+00

 Vector   69  Occ=0.000000D+00  E= 7.794126D+01

@ Step       Energy      Delta E   Gmax     Grms     Xrms     Xmax   Walltime
@ ---- ---------------- -------- -------- -------- -------- -------- --------
@    0   -2573.89793429  0.0D+00  0.00000  0.00000  0.00000  0.00000     10.2
         Total DFT energy =    -2573.897934805672

                       DFT Final Molecular Orbital Analysis
                       ------------------------------------

 Vector    1  Occ=2.000000D+00  E=-4.807532D+02

 Vector    2  Occ=2.000000D+00  E=-6.153884D+01

 Vector    3  Occ=2.000000D+00  E=-5.545165D+01

 Vector    4  Occ=2.000000D+00  E=-5.545165D+01

 Vector    5  Occ=2.000000D+00  E=-5.545165D+01

 Vector    6  Occ=2.000000D+00  E=-8.123973D+00

 Vector    7  Occ=2.000000D+00  E=-5.992615D+00

 Vector    8  Occ=2.000000D+00  E=-5.992615D+00

 Vector    9  Occ=2.000000D+00  E=-5.992615D+00

 Vector   10  Occ=2.000000D+00  E=-2.196599D+00

 Vector   11  Occ=2.000000D+00  E=-2.196599D+00

 Vector   12  Occ=2.000000D+00  E=-2.196599D+00

 Vector   13  Occ=2.000000D+00  E=-2.196599D+00

 Vector   14  Occ=2.000000D+00  E=-2.196599D+00

 Vector   15  Occ=2.000000D+00  E=-4.015485D-01

 Vector   16  Occ=2.000000D+00  E= 2.995456D-03

 Vector   17  Occ=2.000000D+00  E= 2.995456D-03

 Vector   18  Occ=2.000000D+00  E= 2.995456D-03

 Vector   19  Occ=0.000000D+00  E= 1.587668D-01

 Vector   20  Occ=0.000000D+00  E= 1.800938D-01

 Vector   21  Occ=0.000000D+00  E= 1.800938D-01

 Vector   22  Occ=0.000000D+00  E= 1.800938D-01

 Vector   23  Occ=0.000000D+00  E= 3.611149D-01

 Vector   24  Occ=0.000000D+00  E= 3.611149D-01

 Vector   25  Occ=0.000000D+00  E= 3.611149D-01

 Vector   26  Occ=0.000000D+00  E= 3.611149D-01

 Vector   27  Occ=0.000000D+00  E= 3.611149D-01

 Vector   28  Occ=0.000000D+00  E= 3.953880D-01

 Vector   29  Occ=0.000000D+00  E= 4.695890D-01

 Vector   30  Occ=0.000000D+00  E= 4.695890D-01

 Vector   31  Occ=0.000000D+00  E= 4.695890D-01

 Vector   32  Occ=0.000000D+00  E= 8.031081D-01

 Vector   33  Occ=0.000000D+00  E= 8.031081D-01

 Vector   34  Occ=0.000000D+00  E= 8.031081D-01

 Vector   35  Occ=0.000000D+00  E= 8.031081D-01

 Vector   36  Occ=0.000000D+00  E= 8.031081D-01

 Vector   37  Occ=0.000000D+00  E= 9.763821D-01

 Vector   38  Occ=0.000000D+00  E= 9.763821D-01

 Vector   39  Occ=0.000000D+00  E= 9.763821D-01

 Vector   40  Occ=0.000000D+00  E= 9.763821D-01

 Vector   41  Occ=0.000000D+00  E= 9.763821D-01

 Vector   42  Occ=0.000000D+00  E= 9.763821D-01

 Vector   43  Occ=0.000000D+00  E= 9.763821D-01

 Vector   44  Occ=0.000000D+00  E= 1.046191D+00

 Vector   45  Occ=0.000000D+00  E= 1.128513D+00

 Vector   46  Occ=0.000000D+00  E= 1.128513D+00

 Vector   47  Occ=0.000000D+00  E= 1.128513D+00

 Vector   48  Occ=0.000000D+00  E= 1.729098D+00

 Vector   49  Occ=0.000000D+00  E= 2.153767D+00

 Vector   50  Occ=0.000000D+00  E= 2.153767D+00

 Vector   51  Occ=0.000000D+00  E= 2.153767D+00

 Vector   52  Occ=0.000000D+00  E= 2.153767D+00

 Vector   53  Occ=0.000000D+00  E= 2.153767D+00

 Vector   54  Occ=0.000000D+00  E= 2.205820D+00

 Vector   55  Occ=0.000000D+00  E= 2.205820D+00

 Vector   56  Occ=0.000000D+00  E= 2.205820D+00

 Vector   57  Occ=0.000000D+00  E= 2.205820D+00

 Vector   58  Occ=0.000000D+00  E= 2.205820D+00

 Vector   59  Occ=0.000000D+00  E= 2.205820D+00

 Vector   60  Occ=0.000000D+00  E= 2.205820D+00

 Vector   61  Occ=0.000000D+00  E= 2.479796D+00

 Vector   62  Occ=0.000000D+00  E= 2.479796D+00

 Vector   63  Occ=0.000000D+00  E= 2.479796D+00

 Vector   64  Occ=0.000000D+00  E= 4.510795D+00

 Vector   65  Occ=0.000000D+00  E= 4.603980D+00

 Vector   66  Occ=0.000000D+00  E= 4.603980D+00

 Vector   67  Occ=0.000000D+00  E= 4.603980D+00

 Vector   68  Occ=0.000000D+00  E= 9.437534D+00

 Vector   69  Occ=0.000000D+00  E= 7.794126D+01

         Total DFT energy =  -2573.897934805672
@    1   -2573.89793481 -5.1D-07  0.00000  0.00000  0.00000  0.00000     15.2
@    1   -2573.89793481 -5.1D-07  0.00000  0.00000  0.00000  0.00000     15.2

 Output coordinates in angstroms (scale by  1.889725989 to convert to a.u.)

  No.       Tag          Charge          X              Y              Z
 ---- ---------------- ---------- -------------- -------------- --------------
    1 Br                  35.0000     0.00000000     0.00000000     0.00000000

 Total times  cpu:       13.9s     wall:       15.2s
