         Total DFT energy =     -460.101221588408

 Vector   39  Occ=0.000000D+00  E= 2.395538D+00

 Vector   40  Occ=0.000000D+00  E= 2.395538D+00

 Vector   41  Occ=0.000000D+00  E= 2.395538D+00

 Vector   42  Occ=0.000000D+00  E= 2.395538D+00

 Vector   43  Occ=0.000000D+00  E= 2.395538D+00

 Vector   44  Occ=0.000000D+00  E= 2.936637D+00

 Vector   45  Occ=0.000000D+00  E= 2.936637D+00

 Vector   46  Occ=0.000000D+00  E= 2.936637D+00

 Vector   47  Occ=0.000000D+00  E= 2.936637D+00

 Vector   48  Occ=0.000000D+00  E= 2.936637D+00

 Vector   49  Occ=0.000000D+00  E= 2.936637D+00

 Vector   50  Occ=0.000000D+00  E= 2.936637D+00

 Vector   51  Occ=0.000000D+00  E= 3.047172D+00

 Vector   52  Occ=0.000000D+00  E= 3.047172D+00

 Vector   53  Occ=0.000000D+00  E= 3.047172D+00

 Vector   54  Occ=0.000000D+00  E= 3.502626D+00

 Vector   55  Occ=0.000000D+00  E= 5.623270D+00

 Vector   56  Occ=0.000000D+00  E= 5.787258D+00

 Vector   57  Occ=0.000000D+00  E= 5.787258D+00

 Vector   58  Occ=0.000000D+00  E= 5.787258D+00

 Vector   59  Occ=0.000000D+00  E= 9.034702D+00

@ Step       Energy      Delta E   Gmax     Grms     Xrms     Xmax   Walltime
@ ---- ---------------- -------- -------- -------- -------- -------- --------
@    0    -460.10122159  0.0D+00  0.00000  0.00000  0.00000  0.00000      1.5
         Total DFT energy =     -460.101222102671

                       DFT Final Molecular Orbital Analysis
                       ------------------------------------

 Vector    1  Occ=2.000000D+00  E=-1.003848D+02

 Vector    2  Occ=2.000000D+00  E=-8.866173D+00

 Vector    3  Occ=2.000000D+00  E=-6.684898D+00

 Vector    4  Occ=2.000000D+00  E=-6.684898D+00

 Vector    5  Occ=2.000000D+00  E=-6.684898D+00

 Vector    6  Occ=2.000000D+00  E=-4.106719D-01

 Vector    7  Occ=2.000000D+00  E= 8.909922D-03

 Vector    8  Occ=2.000000D+00  E= 8.909922D-03

 Vector    9  Occ=2.000000D+00  E= 8.909922D-03

 Vector   10  Occ=0.000000D+00  E= 1.941664D-01

 Vector   11  Occ=0.000000D+00  E= 2.067148D-01

 Vector   12  Occ=0.000000D+00  E= 2.067148D-01

 Vector   13  Occ=0.000000D+00  E= 2.067148D-01

 Vector   14  Occ=0.000000D+00  E= 4.437088D-01

 Vector   15  Occ=0.000000D+00  E= 4.437088D-01

 Vector   16  Occ=0.000000D+00  E= 4.437088D-01

 Vector   17  Occ=0.000000D+00  E= 4.437088D-01

 Vector   18  Occ=0.000000D+00  E= 4.437088D-01

 Vector   19  Occ=0.000000D+00  E= 5.251631D-01

 Vector   20  Occ=0.000000D+00  E= 5.596639D-01

 Vector   21  Occ=0.000000D+00  E= 5.596639D-01

 Vector   22  Occ=0.000000D+00  E= 5.596639D-01

 Vector   23  Occ=0.000000D+00  E= 9.418191D-01

 Vector   24  Occ=0.000000D+00  E= 9.418191D-01

 Vector   25  Occ=0.000000D+00  E= 9.418191D-01

 Vector   26  Occ=0.000000D+00  E= 9.418191D-01

 Vector   27  Occ=0.000000D+00  E= 9.418191D-01

 Vector   28  Occ=0.000000D+00  E= 1.213345D+00

 Vector   29  Occ=0.000000D+00  E= 1.213345D+00

 Vector   30  Occ=0.000000D+00  E= 1.213345D+00

 Vector   31  Occ=0.000000D+00  E= 1.213345D+00

 Vector   32  Occ=0.000000D+00  E= 1.213345D+00

 Vector   33  Occ=0.000000D+00  E= 1.213345D+00

 Vector   34  Occ=0.000000D+00  E= 1.213345D+00

 Vector   35  Occ=0.000000D+00  E= 1.348320D+00

 Vector   36  Occ=0.000000D+00  E= 1.348320D+00

 Vector   37  Occ=0.000000D+00  E= 1.348320D+00

 Vector   38  Occ=0.000000D+00  E= 1.508223D+00

 Vector   39  Occ=0.000000D+00  E= 2.395538D+00

 Vector   40  Occ=0.000000D+00  E= 2.395538D+00

 Vector   41  Occ=0.000000D+00  E= 2.395538D+00

 Vector   42  Occ=0.000000D+00  E= 2.395538D+00

 Vector   43  Occ=0.000000D+00  E= 2.395538D+00

 Vector   44  Occ=0.000000D+00  E= 2.936637D+00

 Vector   45  Occ=0.000000D+00  E= 2.936637D+00

 Vector   46  Occ=0.000000D+00  E= 2.936637D+00

 Vector   47  Occ=0.000000D+00  E= 2.936637D+00

 Vector   48  Occ=0.000000D+00  E= 2.936637D+00

 Vector   49  Occ=0.000000D+00  E= 2.936637D+00

 Vector   50  Occ=0.000000D+00  E= 2.936637D+00

 Vector   51  Occ=0.000000D+00  E= 3.047172D+00

 Vector   52  Occ=0.000000D+00  E= 3.047172D+00

 Vector   53  Occ=0.000000D+00  E= 3.047172D+00

 Vector   54  Occ=0.000000D+00  E= 3.502626D+00

 Vector   55  Occ=0.000000D+00  E= 5.623270D+00

 Vector   56  Occ=0.000000D+00  E= 5.787258D+00

 Vector   57  Occ=0.000000D+00  E= 5.787258D+00

 Vector   58  Occ=0.000000D+00  E= 5.787258D+00

 Vector   59  Occ=0.000000D+00  E= 9.034702D+00

         Total DFT energy =   -460.101222102671
@    1    -460.10122210 -5.1D-07  0.00000  0.00000  0.00000  0.00000      1.9
@    1    -460.10122210 -5.1D-07  0.00000  0.00000  0.00000  0.00000      1.9

 Output coordinates in angstroms (scale by  1.889725989 to convert to a.u.)

  No.       Tag          Charge          X              Y              Z
 ---- ---------------- ---------- -------------- -------------- --------------
    1 Cl                  17.0000     0.00000000     0.00000000     0.00000000

 Total times  cpu:        1.6s     wall:        2.0s
