         Total DFT energy =     -100.388821013850
@ Step       Energy      Delta E   Gmax     Grms     Xrms     Xmax   Walltime
@ ---- ---------------- -------- -------- -------- -------- -------- --------
@    0    -100.38882101  0.0D+00  0.05267  0.03330  0.00000  0.00000      1.3
         Total DFT energy =     -100.391138367278
         Total DFT energy =     -100.392854442253
@    1    -100.39285444 -4.0D-03  0.00127  0.00080  0.03658  0.05786      2.5
         Total DFT energy =     -100.392856254821

                       DFT Final Molecular Orbital Analysis
                       ------------------------------------

 Vector    1  Occ=2.000000D+00  E=-2.425695D+01

 Vector    2  Occ=2.000000D+00  E=-1.101352D+00

 Vector    3  Occ=2.000000D+00  E=-4.930832D-01

 Vector    4  Occ=2.000000D+00  E=-3.533151D-01

 Vector    5  Occ=2.000000D+00  E=-3.533151D-01

 Vector    6  Occ=0.000000D+00  E=-3.787754D-02

 Vector    7  Occ=0.000000D+00  E= 6.334097D-02

 Vector    8  Occ=0.000000D+00  E= 1.063753D-01

 Vector    9  Occ=0.000000D+00  E= 1.110977D-01

 Vector   10  Occ=0.000000D+00  E= 1.110977D-01

 Vector   11  Occ=0.000000D+00  E= 1.985521D-01

 Vector   12  Occ=0.000000D+00  E= 2.022804D-01

 Vector   13  Occ=0.000000D+00  E= 2.022804D-01

 Vector   14  Occ=0.000000D+00  E= 2.936594D-01

 Vector   15  Occ=0.000000D+00  E= 4.011921D-01

 Vector   16  Occ=0.000000D+00  E= 5.921857D-01

 Vector   17  Occ=0.000000D+00  E= 5.921863D-01

 Vector   18  Occ=0.000000D+00  E= 6.797419D-01

 Vector   19  Occ=0.000000D+00  E= 6.797419D-01

 Vector   20  Occ=0.000000D+00  E= 7.132131D-01

 Vector   21  Occ=0.000000D+00  E= 7.501343D-01

 Vector   22  Occ=0.000000D+00  E= 7.501343D-01

 Vector   23  Occ=0.000000D+00  E= 7.608374D-01

 Vector   24  Occ=0.000000D+00  E= 8.561051D-01

 Vector   25  Occ=0.000000D+00  E= 8.561051D-01

 Vector   26  Occ=0.000000D+00  E= 8.973890D-01

 Vector   27  Occ=0.000000D+00  E= 9.044218D-01

 Vector   28  Occ=0.000000D+00  E= 9.044245D-01

 Vector   29  Occ=0.000000D+00  E= 1.016646D+00

 Vector   30  Occ=0.000000D+00  E= 1.303940D+00

 Vector   31  Occ=0.000000D+00  E= 1.443384D+00

 Vector   32  Occ=0.000000D+00  E= 1.443384D+00

 Vector   33  Occ=0.000000D+00  E= 1.713538D+00

 Vector   34  Occ=0.000000D+00  E= 2.360628D+00

 Vector   35  Occ=0.000000D+00  E= 2.360628D+00

 Vector   36  Occ=0.000000D+00  E= 2.422372D+00

 Vector   37  Occ=0.000000D+00  E= 2.422372D+00

 Vector   38  Occ=0.000000D+00  E= 2.444600D+00

 Vector   39  Occ=0.000000D+00  E= 2.504506D+00

 Vector   40  Occ=0.000000D+00  E= 2.504506D+00

 Vector   41  Occ=0.000000D+00  E= 2.544582D+00

 Vector   42  Occ=0.000000D+00  E= 2.574022D+00

 Vector   43  Occ=0.000000D+00  E= 2.574022D+00

 Vector   44  Occ=0.000000D+00  E= 2.781408D+00

 Vector   45  Occ=0.000000D+00  E= 2.782222D+00

 Vector   46  Occ=0.000000D+00  E= 2.782222D+00

 Vector   47  Occ=0.000000D+00  E= 3.246655D+00

 Vector   48  Occ=0.000000D+00  E= 3.255270D+00

 Vector   49  Occ=0.000000D+00  E= 3.255270D+00

 Vector   50  Occ=0.000000D+00  E= 3.804400D+00

 Vector   51  Occ=0.000000D+00  E= 3.804400D+00

 Vector   52  Occ=0.000000D+00  E= 3.954625D+00

 Vector   53  Occ=0.000000D+00  E= 3.955178D+00

 Vector   54  Occ=0.000000D+00  E= 3.955178D+00

 Vector   55  Occ=0.000000D+00  E= 4.884512D+00

 Vector   56  Occ=0.000000D+00  E= 5.100435D+00

 Vector   57  Occ=0.000000D+00  E= 5.100435D+00

 Vector   58  Occ=0.000000D+00  E= 5.265049D+00

 Vector   59  Occ=0.000000D+00  E= 5.551653D+00

 Vector   60  Occ=0.000000D+00  E= 6.663546D+00

 Vector   61  Occ=0.000000D+00  E= 6.663546D+00

 Vector   62  Occ=0.000000D+00  E= 6.802789D+00

 Vector   63  Occ=0.000000D+00  E= 8.150422D+00

 Vector   64  Occ=0.000000D+00  E= 8.150422D+00

 Vector   65  Occ=0.000000D+00  E= 8.152256D+00

 Vector   66  Occ=0.000000D+00  E= 8.239679D+00

 Vector   67  Occ=0.000000D+00  E= 8.239679D+00

 Vector   68  Occ=0.000000D+00  E= 8.541882D+00

 Vector   69  Occ=0.000000D+00  E= 8.541882D+00

 Vector   70  Occ=0.000000D+00  E= 8.592478D+00

 Vector   71  Occ=0.000000D+00  E= 8.592479D+00

 Vector   72  Occ=0.000000D+00  E= 8.806754D+00

 Vector   73  Occ=0.000000D+00  E= 8.806754D+00

 Vector   74  Occ=0.000000D+00  E= 9.513677D+00

 Vector   75  Occ=0.000000D+00  E= 1.011513D+01

 Vector   76  Occ=0.000000D+00  E= 1.464152D+01

 Vector   77  Occ=0.000000D+00  E= 1.701218D+01

 Vector   78  Occ=0.000000D+00  E= 1.701218D+01

 Vector   79  Occ=0.000000D+00  E= 1.939782D+01

 Vector   80  Occ=0.000000D+00  E= 2.247895D+01

     Multipole analysis of the density
     ---------------------------------

     L   x y z        total         alpha         beta         nuclear
     -   - - -        -----         -----         ----         -------
     0   0 0 0     -0.000000     -5.000000     -5.000000     10.000000

     1   1 0 0      0.632981     -0.783504     -0.783504      2.199989
     1   0 1 0      0.016395     -0.020294     -0.020294      0.056983
     1   0 0 1     -0.281984      0.349040      0.349040     -0.980063

     2   2 0 0     -2.837525     -2.823052     -2.823052      2.808579
     2   1 1 0      0.041688     -0.015529     -0.015529      0.072746
     2   1 0 1     -0.716998      0.267092      0.267092     -1.251181
     2   0 2 0     -4.445921     -2.223902     -2.223902      0.001884
     2   0 1 1     -0.018571      0.006918      0.006918     -0.032407

         Total DFT energy =   -100.392856254821
@    2    -100.39285625 -1.8D-06  0.00034  0.00021  0.00090  0.00143      3.0
@    2    -100.39285625 -1.8D-06  0.00034  0.00021  0.00090  0.00143      3.0

 Output coordinates in angstroms (scale by  1.889725989 to convert to a.u.)

  No.       Tag          Charge          X              Y              Z
 ---- ---------------- ---------- -------------- -------------- --------------
    1 F                    9.0000     0.03137268     0.00081260    -0.01397607
    2 H                    1.0000     0.88183005     0.02284063    -0.39284242

 Total times  cpu:        2.5s     wall:        3.0s
