         Total DFT energy =     -280.225580110310
@ Step       Energy      Delta E   Gmax     Grms     Xrms     Xmax   Walltime
@ ---- ---------------- -------- -------- -------- -------- -------- --------
@    0    -280.22558011  0.0D+00  0.03902  0.01751  0.00000  0.00000     20.0
         Total DFT energy =     -280.227306467837
         Total DFT energy =     -280.227868009929
@    1    -280.22786801 -2.3D-03  0.03046  0.01046  0.03659  0.06351     45.6
         Total DFT energy =     -280.228269245654
         Total DFT energy =     -280.228512678932
@    2    -280.22851268 -6.4D-04  0.00414  0.00191  0.01208  0.03190     69.4
         Total DFT energy =     -280.227311038111
         Total DFT energy =     -280.228560496833
@    3    -280.22856050 -4.8D-05  0.00095  0.00049  0.00458  0.01148     96.0
         Total DFT energy =     -280.228563663560
         Total DFT energy =   -280.228563663560
@    4    -280.22856366 -3.2D-06  0.00028  0.00013  0.00131  0.00253    104.6
         Total DFT energy =     -280.228563744730

                       DFT Final Molecular Orbital Analysis
                       ------------------------------------

 Vector    1  Occ=2.000000D+00  E=-1.854716D+01

 Vector  141  Occ=0.000000D+00  E= 4.704404D+00

 Vector  142  Occ=0.000000D+00  E= 4.704428D+00

 Vector  143  Occ=0.000000D+00  E= 4.755073D+00

 Vector  144  Occ=0.000000D+00  E= 4.755197D+00

 Vector  145  Occ=0.000000D+00  E= 4.867561D+00

 Vector  146  Occ=0.000000D+00  E= 4.888125D+00

 Vector  147  Occ=0.000000D+00  E= 5.020642D+00

 Vector  148  Occ=0.000000D+00  E= 5.031357D+00

 Vector  149  Occ=0.000000D+00  E= 5.031372D+00

 Vector  150  Occ=0.000000D+00  E= 5.262356D+00

 Vector  151  Occ=0.000000D+00  E= 5.262418D+00

 Vector  152  Occ=0.000000D+00  E= 5.298372D+00

 Vector  153  Occ=0.000000D+00  E= 5.373646D+00

 Vector  154  Occ=0.000000D+00  E= 5.373753D+00

 Vector  155  Occ=0.000000D+00  E= 5.461712D+00

 Vector  156  Occ=0.000000D+00  E= 5.461804D+00

 Vector  157  Occ=0.000000D+00  E= 5.475109D+00

 Vector  158  Occ=0.000000D+00  E= 5.655434D+00

 Vector  159  Occ=0.000000D+00  E= 5.659013D+00

 Vector  160  Occ=0.000000D+00  E= 5.869183D+00

 Vector  161  Occ=0.000000D+00  E= 5.869322D+00

 Vector  162  Occ=0.000000D+00  E= 6.198275D+00

 Vector  163  Occ=0.000000D+00  E= 6.230813D+00

 Vector  164  Occ=0.000000D+00  E= 6.230883D+00

 Vector  165  Occ=0.000000D+00  E= 6.279541D+00

 Vector  166  Occ=0.000000D+00  E= 6.279641D+00

 Vector  167  Occ=0.000000D+00  E= 6.283219D+00

 Vector  168  Occ=0.000000D+00  E= 6.335309D+00

 Vector  169  Occ=0.000000D+00  E= 6.382493D+00

 Vector  170  Occ=0.000000D+00  E= 6.382659D+00

 Vector  171  Occ=0.000000D+00  E= 6.388489D+00

 Vector  172  Occ=0.000000D+00  E= 6.388535D+00

 Vector  173  Occ=0.000000D+00  E= 6.409817D+00

 Vector  174  Occ=0.000000D+00  E= 6.569019D+00

 Vector  175  Occ=0.000000D+00  E= 6.569112D+00

 Vector  176  Occ=0.000000D+00  E= 6.611005D+00

 Vector  177  Occ=0.000000D+00  E= 6.658023D+00

 Vector  178  Occ=0.000000D+00  E= 6.719921D+00

 Vector  179  Occ=0.000000D+00  E= 6.719975D+00

 Vector  180  Occ=0.000000D+00  E= 6.843350D+00

 Vector  181  Occ=0.000000D+00  E= 6.843415D+00

 Vector  182  Occ=0.000000D+00  E= 6.853779D+00

 Vector  183  Occ=0.000000D+00  E= 6.853818D+00

 Vector  184  Occ=0.000000D+00  E= 6.885089D+00

 Vector  185  Occ=0.000000D+00  E= 6.961835D+00

 Vector  186  Occ=0.000000D+00  E= 6.961903D+00

 Vector  187  Occ=0.000000D+00  E= 7.076084D+00

 Vector  188  Occ=0.000000D+00  E= 7.331519D+00

 Vector  189  Occ=0.000000D+00  E= 7.331716D+00

 Vector  190  Occ=0.000000D+00  E= 7.390638D+00

 Vector  191  Occ=0.000000D+00  E= 7.497888D+00

 Vector  192  Occ=0.000000D+00  E= 7.507687D+00

 Vector  193  Occ=0.000000D+00  E= 7.507911D+00

 Vector  194  Occ=0.000000D+00  E= 7.648357D+00

 Vector  195  Occ=0.000000D+00  E= 7.818848D+00

 Vector  196  Occ=0.000000D+00  E= 7.818946D+00

 Vector  197  Occ=0.000000D+00  E= 8.095624D+00

 Vector  198  Occ=0.000000D+00  E= 8.139965D+00

 Vector  199  Occ=0.000000D+00  E= 8.397295D+00

 Vector  200  Occ=0.000000D+00  E= 8.397429D+00

 Vector  201  Occ=0.000000D+00  E= 9.928015D+00

 Vector  202  Occ=0.000000D+00  E= 1.214149D+01

 Vector  203  Occ=0.000000D+00  E= 1.223803D+01

 Vector  204  Occ=0.000000D+00  E= 1.223820D+01

 Vector  205  Occ=0.000000D+00  E= 1.251498D+01

 Vector  206  Occ=0.000000D+00  E= 1.251551D+01

 Vector  207  Occ=0.000000D+00  E= 1.364917D+01

 Vector  208  Occ=0.000000D+00  E= 1.364953D+01

 Vector  209  Occ=0.000000D+00  E= 1.366139D+01

 Vector  210  Occ=0.000000D+00  E= 1.414710D+01

 Vector  211  Occ=0.000000D+00  E= 1.493962D+01

 Vector  212  Occ=0.000000D+00  E= 1.493989D+01

 Vector  213  Occ=0.000000D+00  E= 1.575631D+01

 Vector  214  Occ=0.000000D+00  E= 1.683484D+01

 Vector  215  Occ=0.000000D+00  E= 1.683522D+01

 Vector  216  Occ=0.000000D+00  E= 1.689344D+01

 Vector  217  Occ=0.000000D+00  E= 1.752091D+01

 Vector  218  Occ=0.000000D+00  E= 1.752130D+01

 Vector  219  Occ=0.000000D+00  E= 1.996265D+01

 Vector  220  Occ=0.000000D+00  E= 2.504196D+01

     Multipole analysis of the density
     ---------------------------------

     L   x y z        total         alpha         beta         nuclear
     -   - - -        -----         -----         ----         -------
     0   0 0 0     -1.000000    -16.000000    -16.000000     31.000000

     1   1 0 0     -0.000126      0.011640      0.011640     -0.023406
     1   0 1 0      0.001987      0.055879      0.055879     -0.109772
     1   0 0 1      0.009928      0.164326      0.164326     -0.318724

     2   2 0 0    -18.734651    -17.956899    -17.956899     17.179148
     2   1 1 0     -2.533966    -16.160541    -16.160541     29.787117
     2   1 0 1      0.178948      1.134400      1.134400     -2.089852
     2   0 2 0    -21.695595    -36.841728    -36.841728     51.987860
     2   0 1 1     -0.100722     -0.654498     -0.654498      1.208275

         Total DFT energy =   -280.228563744730
@    5    -280.22856374 -8.1D-08  0.00024  0.00010  0.00035  0.00061    110.5
@    5    -280.22856374 -8.1D-08  0.00024  0.00010  0.00035  0.00061    110.5

 Output coordinates in angstroms (scale by  1.889725989 to convert to a.u.)

  No.       Tag          Charge          X              Y              Z
 ---- ---------------- ---------- -------------- -------------- --------------
    1 N                    7.0000    -0.00043823    -0.00192739    -0.00543460
    2 O                    8.0000    -0.04451030     0.01042904     1.26347332
    3 O                    8.0000     0.56866945     0.94581174    -0.63000995
    4 O                    8.0000    -0.52532392    -0.96181539    -0.64979077

 Total times  cpu:      107.6s     wall:      110.5s
