         Total DFT energy =     -760.573399693206
@ Step       Energy      Delta E   Gmax     Grms     Xrms     Xmax   Walltime
@ ---- ---------------- -------- -------- -------- -------- -------- --------
@    0    -760.57339969  0.0D+00  0.05019  0.01769  0.00000  0.00000     60.2
         Total DFT energy =     -760.575613452048
         Total DFT energy =   -760.575613452048
@    1    -760.57561345 -2.2D-03  0.00899  0.00367  0.01848  0.04647    106.6
         Total DFT energy =     -760.575863954799
         Total DFT energy =     -760.575971833561
@    2    -760.57597183 -3.6D-04  0.00121  0.00068  0.01445  0.03600    168.7
         Total DFT energy =     -760.575978510338
         Total DFT energy =     -760.575978921917
@    3    -760.57597892 -7.1D-06  0.00078  0.00035  0.00166  0.00382    203.2
         Total DFT energy =     -760.575979525919
         Total DFT energy =   -760.575979525919
@    4    -760.57597953 -6.0D-07  0.00055  0.00022  0.00140  0.00309    231.2
         Total DFT energy =     -760.575979846194

                       DFT Final Molecular Orbital Analysis
                       ------------------------------------

 Vector    1  Occ=2.000000D+00  E=-1.008435D+02

 Vector  200  Occ=0.000000D+00  E= 5.358755D+00

 Vector  201  Occ=0.000000D+00  E= 5.358856D+00

 Vector  202  Occ=0.000000D+00  E= 5.528412D+00

 Vector  203  Occ=0.000000D+00  E= 5.857403D+00

 Vector  204  Occ=0.000000D+00  E= 5.971808D+00

 Vector  205  Occ=0.000000D+00  E= 5.971826D+00

 Vector  206  Occ=0.000000D+00  E= 5.971892D+00

 Vector  207  Occ=0.000000D+00  E= 6.156115D+00

 Vector  208  Occ=0.000000D+00  E= 6.156360D+00

 Vector  209  Occ=0.000000D+00  E= 6.156445D+00

 Vector  210  Occ=0.000000D+00  E= 6.178729D+00

 Vector  211  Occ=0.000000D+00  E= 6.178898D+00

 Vector  212  Occ=0.000000D+00  E= 6.179105D+00

 Vector  213  Occ=0.000000D+00  E= 6.221053D+00

 Vector  214  Occ=0.000000D+00  E= 6.221056D+00

 Vector  215  Occ=0.000000D+00  E= 6.233472D+00

 Vector  216  Occ=0.000000D+00  E= 6.249724D+00

 Vector  217  Occ=0.000000D+00  E= 6.249943D+00

 Vector  218  Occ=0.000000D+00  E= 6.250011D+00

 Vector  219  Occ=0.000000D+00  E= 6.333499D+00

 Vector  220  Occ=0.000000D+00  E= 6.430879D+00

 Vector  221  Occ=0.000000D+00  E= 6.430899D+00

 Vector  222  Occ=0.000000D+00  E= 6.443462D+00

 Vector  223  Occ=0.000000D+00  E= 6.443494D+00

 Vector  224  Occ=0.000000D+00  E= 6.443614D+00

 Vector  225  Occ=0.000000D+00  E= 6.465650D+00

 Vector  226  Occ=0.000000D+00  E= 6.465718D+00

 Vector  227  Occ=0.000000D+00  E= 6.465790D+00

 Vector  228  Occ=0.000000D+00  E= 6.644484D+00

 Vector  229  Occ=0.000000D+00  E= 6.644506D+00

 Vector  230  Occ=0.000000D+00  E= 6.644676D+00

 Vector  231  Occ=0.000000D+00  E= 6.649498D+00

 Vector  232  Occ=0.000000D+00  E= 6.649501D+00

 Vector  233  Occ=0.000000D+00  E= 6.664511D+00

 Vector  234  Occ=0.000000D+00  E= 6.664636D+00

 Vector  235  Occ=0.000000D+00  E= 6.664719D+00

 Vector  236  Occ=0.000000D+00  E= 6.755624D+00

 Vector  237  Occ=0.000000D+00  E= 6.755698D+00

 Vector  238  Occ=0.000000D+00  E= 6.755818D+00

 Vector  239  Occ=0.000000D+00  E= 6.763271D+00

 Vector  240  Occ=0.000000D+00  E= 6.842384D+00

 Vector  241  Occ=0.000000D+00  E= 6.842438D+00

 Vector  242  Occ=0.000000D+00  E= 6.842545D+00

 Vector  243  Occ=0.000000D+00  E= 7.058646D+00

 Vector  244  Occ=0.000000D+00  E= 7.058949D+00

 Vector  245  Occ=0.000000D+00  E= 7.059130D+00

 Vector  246  Occ=0.000000D+00  E= 7.204909D+00

 Vector  247  Occ=0.000000D+00  E= 7.205060D+00

 Vector  248  Occ=0.000000D+00  E= 7.205256D+00

 Vector  249  Occ=0.000000D+00  E= 7.523717D+00

 Vector  250  Occ=0.000000D+00  E= 7.523867D+00

 Vector  251  Occ=0.000000D+00  E= 7.523876D+00

 Vector  252  Occ=0.000000D+00  E= 7.527070D+00

 Vector  253  Occ=0.000000D+00  E= 7.527214D+00

 Vector  254  Occ=0.000000D+00  E= 7.645920D+00

 Vector  255  Occ=0.000000D+00  E= 8.043792D+00

 Vector  256  Occ=0.000000D+00  E= 8.043916D+00

 Vector  257  Occ=0.000000D+00  E= 8.044050D+00

 Vector  258  Occ=0.000000D+00  E= 9.133492D+00

 Vector  259  Occ=0.000000D+00  E= 1.263956D+01

 Vector  260  Occ=0.000000D+00  E= 1.263994D+01

 Vector  261  Occ=0.000000D+00  E= 1.264021D+01

 Vector  262  Occ=0.000000D+00  E= 1.345465D+01

 Vector  263  Occ=0.000000D+00  E= 1.345474D+01

 Vector  264  Occ=0.000000D+00  E= 1.345483D+01

 Vector  265  Occ=0.000000D+00  E= 1.388616D+01

 Vector  266  Occ=0.000000D+00  E= 1.403902D+01

 Vector  267  Occ=0.000000D+00  E= 1.403908D+01

 Vector  268  Occ=0.000000D+00  E= 1.403911D+01

 Vector  269  Occ=0.000000D+00  E= 1.467279D+01

 Vector  270  Occ=0.000000D+00  E= 1.467311D+01

 Vector  271  Occ=0.000000D+00  E= 1.548568D+01

 Vector  272  Occ=0.000000D+00  E= 1.667913D+01

 Vector  273  Occ=0.000000D+00  E= 1.667934D+01

 Vector  274  Occ=0.000000D+00  E= 1.667954D+01

 Vector  275  Occ=0.000000D+00  E= 1.714718D+01

 Vector  276  Occ=0.000000D+00  E= 1.730686D+01

 Vector  277  Occ=0.000000D+00  E= 1.730714D+01

 Vector  278  Occ=0.000000D+00  E= 1.730766D+01

 Vector  279  Occ=0.000000D+00  E= 3.274804D+01

     Multipole analysis of the density
     ---------------------------------

     L   x y z        total         alpha         beta         nuclear
     -   - - -        -----         -----         ----         -------
     0   0 0 0     -1.000000    -25.000000    -25.000000     49.000000

     1   1 0 0     -0.001695     -0.089669     -0.089669      0.177642
     1   0 1 0      0.006611      0.096179      0.096179     -0.185748
     1   0 0 1      0.027962      0.672356      0.672356     -1.316750

     2   2 0 0    -31.480103    -58.292518    -58.292518     85.104933
     2   1 1 0      0.001709     -0.002324     -0.002324      0.006357
     2   1 0 1     -0.001203      0.004680      0.004680     -0.010562
     2   0 2 0    -31.485021    -58.286949    -58.286949     85.088876
     2   0 1 1     -0.002415     -0.005495     -0.005495      0.008575

         Total DFT energy =   -760.575979846194
@    5    -760.57597985 -3.2D-07  0.00035  0.00014  0.00062  0.00127    248.7
@    5    -760.57597985 -3.2D-07  0.00035  0.00014  0.00062  0.00127    248.7

 Output coordinates in angstroms (scale by  1.889725989 to convert to a.u.)

  No.       Tag          Charge          X              Y              Z
 ---- ---------------- ---------- -------------- -------------- --------------
    1 Cl                  17.0000     0.00203513    -0.00197838    -0.01423133
    2 O                    8.0000     1.22609484     0.69198904    -0.51809403
    3 O                    8.0000    -1.21444318     0.72345215    -0.49186727
    4 O                    8.0000    -0.02183555    -1.40565104    -0.52719717
    5 O                    8.0000     0.01760977    -0.01787278     1.48030080

 Total times  cpu:      243.4s     wall:      248.7s
