 Output coordinates in angstroms (scale by  1.889725989 to convert to a.u.)

  No.       Tag          Charge          X              Y              Z
 ---- ---------------- ---------- -------------- -------------- --------------
    1 C                    6.0000    -0.01610200    -0.02647925    -0.04590267
    2 C                    6.0000     0.00647333     0.01087969     1.50933425
    3 O                    8.0000    -0.19158298     1.13651732    -0.51459760
    4 O                    8.0000     0.13251070    -1.12737476    -0.62489748
    5 H                    1.0000     0.82350698     0.67054874     1.84288092
    6 H                    1.0000    -0.95101196     0.41462010     1.87607430
    7 F                    9.0000     0.19945593    -1.24373183     2.16135829

         Total DFT energy =     -327.429643949366

                    DFT Final Alpha Molecular Orbital Analysis
                    ------------------------------------------

 Vector    1  Occ=1.000000D+00  E=-2.429448D+01

 Vector  246  Occ=0.000000D+00  E= 5.126882D+00

 Vector  247  Occ=0.000000D+00  E= 5.134722D+00

 Vector  248  Occ=0.000000D+00  E= 5.153837D+00

 Vector  249  Occ=0.000000D+00  E= 5.185917D+00

 Vector  250  Occ=0.000000D+00  E= 5.206260D+00

 Vector  251  Occ=0.000000D+00  E= 5.384382D+00

 Vector  252  Occ=0.000000D+00  E= 5.459450D+00

 Vector  253  Occ=0.000000D+00  E= 5.477230D+00

 Vector  254  Occ=0.000000D+00  E= 5.605567D+00

 Vector  255  Occ=0.000000D+00  E= 5.761352D+00

 Vector  256  Occ=0.000000D+00  E= 6.008285D+00

 Vector  257  Occ=0.000000D+00  E= 6.052497D+00

 Vector  258  Occ=0.000000D+00  E= 6.087065D+00

 Vector  259  Occ=0.000000D+00  E= 6.114678D+00

 Vector  260  Occ=0.000000D+00  E= 6.202627D+00

 Vector  261  Occ=0.000000D+00  E= 6.261734D+00

 Vector  262  Occ=0.000000D+00  E= 6.308491D+00

 Vector  263  Occ=0.000000D+00  E= 6.309017D+00

 Vector  264  Occ=0.000000D+00  E= 6.374561D+00

 Vector  265  Occ=0.000000D+00  E= 6.396007D+00

 Vector  266  Occ=0.000000D+00  E= 6.433774D+00

 Vector  267  Occ=0.000000D+00  E= 6.464432D+00

 Vector  268  Occ=0.000000D+00  E= 6.543299D+00

 Vector  269  Occ=0.000000D+00  E= 6.586926D+00

 Vector  270  Occ=0.000000D+00  E= 6.623531D+00

 Vector  271  Occ=0.000000D+00  E= 6.651114D+00

 Vector  272  Occ=0.000000D+00  E= 6.732160D+00

 Vector  273  Occ=0.000000D+00  E= 6.804358D+00

 Vector  274  Occ=0.000000D+00  E= 6.866905D+00

 Vector  275  Occ=0.000000D+00  E= 6.940767D+00

 Vector  276  Occ=0.000000D+00  E= 6.965752D+00

 Vector  277  Occ=0.000000D+00  E= 6.985618D+00

 Vector  278  Occ=0.000000D+00  E= 7.034424D+00

 Vector  279  Occ=0.000000D+00  E= 7.099437D+00

 Vector  280  Occ=0.000000D+00  E= 7.144949D+00

 Vector  281  Occ=0.000000D+00  E= 7.173160D+00

 Vector  282  Occ=0.000000D+00  E= 7.213748D+00

 Vector  283  Occ=0.000000D+00  E= 7.308046D+00

 Vector  284  Occ=0.000000D+00  E= 7.439456D+00

 Vector  285  Occ=0.000000D+00  E= 7.505725D+00

 Vector  286  Occ=0.000000D+00  E= 7.663485D+00

 Vector  287  Occ=0.000000D+00  E= 7.894106D+00

 Vector  288  Occ=0.000000D+00  E= 7.918350D+00

 Vector  289  Occ=0.000000D+00  E= 8.024389D+00

 Vector  290  Occ=0.000000D+00  E= 8.181520D+00

 Vector  291  Occ=0.000000D+00  E= 8.279668D+00

 Vector  292  Occ=0.000000D+00  E= 8.344774D+00

 Vector  293  Occ=0.000000D+00  E= 8.465381D+00

 Vector  294  Occ=0.000000D+00  E= 8.537311D+00

 Vector  295  Occ=0.000000D+00  E= 8.561314D+00

 Vector  296  Occ=0.000000D+00  E= 8.661683D+00

 Vector  297  Occ=0.000000D+00  E= 8.670655D+00

 Vector  298  Occ=0.000000D+00  E= 8.752813D+00

 Vector  299  Occ=0.000000D+00  E= 8.801172D+00

 Vector  300  Occ=0.000000D+00  E= 8.905335D+00

 Vector  301  Occ=0.000000D+00  E= 9.084116D+00

 Vector  302  Occ=0.000000D+00  E= 9.084453D+00

 Vector  303  Occ=0.000000D+00  E= 9.235260D+00

 Vector  304  Occ=0.000000D+00  E= 9.665028D+00

 Vector  305  Occ=0.000000D+00  E= 9.836370D+00

 Vector  306  Occ=0.000000D+00  E= 9.919593D+00

 Vector  307  Occ=0.000000D+00  E= 9.988603D+00

 Vector  308  Occ=0.000000D+00  E= 1.011728D+01

 Vector  309  Occ=0.000000D+00  E= 1.311813D+01

 Vector  310  Occ=0.000000D+00  E= 1.353154D+01

 Vector  311  Occ=0.000000D+00  E= 1.401022D+01

 Vector  312  Occ=0.000000D+00  E= 1.422830D+01

 Vector  313  Occ=0.000000D+00  E= 1.491964D+01

 Vector  314  Occ=0.000000D+00  E= 1.497586D+01

 Vector  315  Occ=0.000000D+00  E= 1.602134D+01

 Vector  316  Occ=0.000000D+00  E= 1.653706D+01

 Vector  317  Occ=0.000000D+00  E= 1.663542D+01

 Vector  318  Occ=0.000000D+00  E= 1.834495D+01

 Vector  319  Occ=0.000000D+00  E= 1.837938D+01

 Vector  320  Occ=0.000000D+00  E= 1.873223D+01

 Vector  321  Occ=0.000000D+00  E= 1.886659D+01

 Vector  322  Occ=0.000000D+00  E= 2.106208D+01

 Vector  323  Occ=0.000000D+00  E= 2.333026D+01

 Vector  324  Occ=0.000000D+00  E= 2.801364D+01

 Vector  325  Occ=0.000000D+00  E= 2.983472D+01

     Multipole analysis of the density
     ---------------------------------

     L   x y z        total         alpha         beta         nuclear
     -   - - -        -----         -----         ----         -------
     0   0 0 0     -0.000000    -20.000000    -19.000000     39.000000

     1   1 0 0     -0.059275     -1.093928     -1.114434      2.149087
     1   0 1 0      0.506771      9.893560      9.754008    -19.140797
     1   0 0 1      0.790634    -21.035709    -21.327078     43.153421

     2   2 0 0    -19.357135    -14.128883    -13.715042      8.486790
     2   1 1 0      0.746372      9.583736      9.049263    -17.886626
     2   1 0 1     -0.396491     -7.040906     -6.935040     13.579455
     2   0 2 0    -24.239225    -76.730026    -72.673025    125.163826
     2   0 1 1      2.479339     39.034090     38.854612    -75.409363

 Total times  cpu:       84.3s     wall:       86.6s
