 Output coordinates in angstroms (scale by  1.889725989 to convert to a.u.)

  No.       Tag          Charge          X              Y              Z
 ---- ---------------- ---------- -------------- -------------- --------------
    1 P                   15.0000    -0.09620528    -0.09708079    -0.06295237
    2 O                    8.0000     0.42668828     1.24893674    -0.55100443
    3 O                    8.0000     1.22499865    -1.14638422    -0.08168639
    4 O                    8.0000    -0.36036234     0.07687002     1.59443337
    5 O                    8.0000    -1.27143044    -0.84510630    -0.62821705
    6 H                    1.0000     1.98173822    -0.55677400    -0.23735164
    7 H                    1.0000     0.05588392     0.92988155     1.80292252

         Total DFT energy =     -643.169599223251

                    DFT Final Alpha Molecular Orbital Analysis
                    ------------------------------------------

 Vector    1  Occ=1.000000D+00  E=-7.646615D+01

 Vector  250  Occ=0.000000D+00  E= 5.529515D+00

 Vector  251  Occ=0.000000D+00  E= 5.639466D+00

 Vector  252  Occ=0.000000D+00  E= 5.790082D+00

 Vector  253  Occ=0.000000D+00  E= 5.934982D+00

 Vector  254  Occ=0.000000D+00  E= 5.968526D+00

 Vector  255  Occ=0.000000D+00  E= 5.981224D+00

 Vector  256  Occ=0.000000D+00  E= 6.059656D+00

 Vector  257  Occ=0.000000D+00  E= 6.080837D+00

 Vector  258  Occ=0.000000D+00  E= 6.086703D+00

 Vector  259  Occ=0.000000D+00  E= 6.126508D+00

 Vector  260  Occ=0.000000D+00  E= 6.138703D+00

 Vector  261  Occ=0.000000D+00  E= 6.177802D+00

 Vector  262  Occ=0.000000D+00  E= 6.202988D+00

 Vector  263  Occ=0.000000D+00  E= 6.207562D+00

 Vector  264  Occ=0.000000D+00  E= 6.210742D+00

 Vector  265  Occ=0.000000D+00  E= 6.241498D+00

 Vector  266  Occ=0.000000D+00  E= 6.254057D+00

 Vector  267  Occ=0.000000D+00  E= 6.278224D+00

 Vector  268  Occ=0.000000D+00  E= 6.285632D+00

 Vector  269  Occ=0.000000D+00  E= 6.300340D+00

 Vector  270  Occ=0.000000D+00  E= 6.323978D+00

 Vector  271  Occ=0.000000D+00  E= 6.340000D+00

 Vector  272  Occ=0.000000D+00  E= 6.376132D+00

 Vector  273  Occ=0.000000D+00  E= 6.393242D+00

 Vector  274  Occ=0.000000D+00  E= 6.398674D+00

 Vector  275  Occ=0.000000D+00  E= 6.426496D+00

 Vector  276  Occ=0.000000D+00  E= 6.464875D+00

 Vector  277  Occ=0.000000D+00  E= 6.480592D+00

 Vector  278  Occ=0.000000D+00  E= 6.503795D+00

 Vector  279  Occ=0.000000D+00  E= 6.530650D+00

 Vector  280  Occ=0.000000D+00  E= 6.557284D+00

 Vector  281  Occ=0.000000D+00  E= 6.567659D+00

 Vector  282  Occ=0.000000D+00  E= 6.572988D+00

 Vector  283  Occ=0.000000D+00  E= 6.584243D+00

 Vector  284  Occ=0.000000D+00  E= 6.610627D+00

 Vector  285  Occ=0.000000D+00  E= 6.637983D+00

 Vector  286  Occ=0.000000D+00  E= 6.655601D+00

 Vector  287  Occ=0.000000D+00  E= 6.664593D+00

 Vector  288  Occ=0.000000D+00  E= 6.665679D+00

 Vector  289  Occ=0.000000D+00  E= 6.718928D+00

 Vector  290  Occ=0.000000D+00  E= 6.727532D+00

 Vector  291  Occ=0.000000D+00  E= 6.803565D+00

 Vector  292  Occ=0.000000D+00  E= 6.805606D+00

 Vector  293  Occ=0.000000D+00  E= 6.848163D+00

 Vector  294  Occ=0.000000D+00  E= 6.956561D+00

 Vector  295  Occ=0.000000D+00  E= 7.036566D+00

 Vector  296  Occ=0.000000D+00  E= 7.055055D+00

 Vector  297  Occ=0.000000D+00  E= 7.079681D+00

 Vector  298  Occ=0.000000D+00  E= 7.094113D+00

 Vector  299  Occ=0.000000D+00  E= 7.144702D+00

 Vector  300  Occ=0.000000D+00  E= 7.258521D+00

 Vector  301  Occ=0.000000D+00  E= 7.391239D+00

 Vector  302  Occ=0.000000D+00  E= 7.536296D+00

 Vector  303  Occ=0.000000D+00  E= 7.628002D+00

 Vector  304  Occ=0.000000D+00  E= 7.991609D+00

 Vector  305  Occ=0.000000D+00  E= 8.061204D+00

 Vector  306  Occ=0.000000D+00  E= 8.346762D+00

 Vector  307  Occ=0.000000D+00  E= 8.554862D+00

 Vector  308  Occ=0.000000D+00  E= 8.619036D+00

 Vector  309  Occ=0.000000D+00  E= 1.230961D+01

 Vector  310  Occ=0.000000D+00  E= 1.264080D+01

 Vector  311  Occ=0.000000D+00  E= 1.348563D+01

 Vector  312  Occ=0.000000D+00  E= 1.350246D+01

 Vector  313  Occ=0.000000D+00  E= 1.374558D+01

 Vector  314  Occ=0.000000D+00  E= 1.382770D+01

 Vector  315  Occ=0.000000D+00  E= 1.389105D+01

 Vector  316  Occ=0.000000D+00  E= 1.399231D+01

 Vector  317  Occ=0.000000D+00  E= 1.404482D+01

 Vector  318  Occ=0.000000D+00  E= 1.424625D+01

 Vector  319  Occ=0.000000D+00  E= 1.497044D+01

 Vector  320  Occ=0.000000D+00  E= 1.505659D+01

 Vector  321  Occ=0.000000D+00  E= 1.572191D+01

 Vector  322  Occ=0.000000D+00  E= 1.598067D+01

 Vector  323  Occ=0.000000D+00  E= 1.628523D+01

 Vector  324  Occ=0.000000D+00  E= 1.678930D+01

 Vector  325  Occ=0.000000D+00  E= 1.697743D+01

 Vector  326  Occ=0.000000D+00  E= 1.704349D+01

 Vector  327  Occ=0.000000D+00  E= 1.709590D+01

 Vector  328  Occ=0.000000D+00  E= 1.834143D+01

 Vector  329  Occ=0.000000D+00  E= 2.159628D+01

     Multipole analysis of the density
     ---------------------------------

     L   x y z        total         alpha         beta         nuclear
     -   - - -        -----         -----         ----         -------
     0   0 0 0     -0.000000    -25.000000    -24.000000     49.000000

     1   1 0 0      0.957342     -0.028951     -0.437986      1.424279
     1   0 1 0      0.451598      6.304539      6.257509    -12.110450
     1   0 0 1      0.491640     -2.568656     -3.155938      6.216233

     2   2 0 0    -24.609569    -70.400064    -66.704776    112.495271
     2   1 1 0     -0.796558     -2.123165     -0.429369      1.755975
     2   1 0 1      0.048317      1.740237      2.475040     -4.166959
     2   0 2 0    -28.158408    -69.985543    -65.552178    107.379313
     2   0 1 1      2.377446     -3.015936     -3.076885      8.470267

 Total times  cpu:      249.6s     wall:      262.3s
