 Output coordinates in angstroms (scale by  1.889725989 to convert to a.u.)

  No.       Tag          Charge          X              Y              Z
 ---- ---------------- ---------- -------------- -------------- --------------
    1 O                    8.0000    -0.02801146    -0.03683955     0.04941666
    2 O                    8.0000     1.33865259     2.05896516    -2.51310794
    3 O                    8.0000     0.99191249     1.95096979     0.29749749
    4 O                    8.0000     0.23420355     0.05487761    -2.61511540
    5 C                    6.0000     0.60481711     1.07905954    -0.46265674
    6 C                    6.0000     0.74090265     1.05795536    -2.06037025
    7 H                    1.0000    -0.02848094     0.13190609     1.01472018

         Total DFT energy =     -377.426567957129

                    DFT Final Alpha Molecular Orbital Analysis
                    ------------------------------------------

 Vector    1  Occ=1.000000D+00  E=-1.887010D+01

 Vector  276  Occ=0.000000D+00  E= 6.049690D+00

 Vector  277  Occ=0.000000D+00  E= 6.091005D+00

 Vector  278  Occ=0.000000D+00  E= 6.117759D+00

 Vector  279  Occ=0.000000D+00  E= 6.129459D+00

 Vector  280  Occ=0.000000D+00  E= 6.148320D+00

 Vector  281  Occ=0.000000D+00  E= 6.181028D+00

 Vector  282  Occ=0.000000D+00  E= 6.244700D+00

 Vector  283  Occ=0.000000D+00  E= 6.279783D+00

 Vector  284  Occ=0.000000D+00  E= 6.305124D+00

 Vector  285  Occ=0.000000D+00  E= 6.308235D+00

 Vector  286  Occ=0.000000D+00  E= 6.327408D+00

 Vector  287  Occ=0.000000D+00  E= 6.354903D+00

 Vector  288  Occ=0.000000D+00  E= 6.387170D+00

 Vector  289  Occ=0.000000D+00  E= 6.432265D+00

 Vector  290  Occ=0.000000D+00  E= 6.449428D+00

 Vector  291  Occ=0.000000D+00  E= 6.451759D+00

 Vector  292  Occ=0.000000D+00  E= 6.493264D+00

 Vector  293  Occ=0.000000D+00  E= 6.494964D+00

 Vector  294  Occ=0.000000D+00  E= 6.535021D+00

 Vector  295  Occ=0.000000D+00  E= 6.565295D+00

 Vector  296  Occ=0.000000D+00  E= 6.586490D+00

 Vector  297  Occ=0.000000D+00  E= 6.588958D+00

 Vector  298  Occ=0.000000D+00  E= 6.623445D+00

 Vector  299  Occ=0.000000D+00  E= 6.630340D+00

 Vector  300  Occ=0.000000D+00  E= 6.648778D+00

 Vector  301  Occ=0.000000D+00  E= 6.702510D+00

 Vector  302  Occ=0.000000D+00  E= 6.710337D+00

 Vector  303  Occ=0.000000D+00  E= 6.784284D+00

 Vector  304  Occ=0.000000D+00  E= 6.799240D+00

 Vector  305  Occ=0.000000D+00  E= 6.862067D+00

 Vector  306  Occ=0.000000D+00  E= 6.922596D+00

 Vector  307  Occ=0.000000D+00  E= 6.981202D+00

 Vector  308  Occ=0.000000D+00  E= 6.998342D+00

 Vector  309  Occ=0.000000D+00  E= 7.020777D+00

 Vector  310  Occ=0.000000D+00  E= 7.115755D+00

 Vector  311  Occ=0.000000D+00  E= 7.124324D+00

 Vector  312  Occ=0.000000D+00  E= 7.175406D+00

 Vector  313  Occ=0.000000D+00  E= 7.221201D+00

 Vector  314  Occ=0.000000D+00  E= 7.236380D+00

 Vector  315  Occ=0.000000D+00  E= 7.261919D+00

 Vector  316  Occ=0.000000D+00  E= 7.271530D+00

 Vector  317  Occ=0.000000D+00  E= 7.326883D+00

 Vector  318  Occ=0.000000D+00  E= 7.411967D+00

 Vector  319  Occ=0.000000D+00  E= 7.440901D+00

 Vector  320  Occ=0.000000D+00  E= 7.538008D+00

 Vector  321  Occ=0.000000D+00  E= 7.641620D+00

 Vector  322  Occ=0.000000D+00  E= 7.706173D+00

 Vector  323  Occ=0.000000D+00  E= 7.792368D+00

 Vector  324  Occ=0.000000D+00  E= 7.884375D+00

 Vector  325  Occ=0.000000D+00  E= 7.913597D+00

 Vector  326  Occ=0.000000D+00  E= 8.048059D+00

 Vector  327  Occ=0.000000D+00  E= 8.324856D+00

 Vector  328  Occ=0.000000D+00  E= 8.423149D+00

 Vector  329  Occ=0.000000D+00  E= 8.706266D+00

 Vector  330  Occ=0.000000D+00  E= 9.335963D+00

 Vector  331  Occ=0.000000D+00  E= 9.599054D+00

 Vector  332  Occ=0.000000D+00  E= 1.007655D+01

 Vector  333  Occ=0.000000D+00  E= 1.026250D+01

 Vector  334  Occ=0.000000D+00  E= 1.311636D+01

 Vector  335  Occ=0.000000D+00  E= 1.333157D+01

 Vector  336  Occ=0.000000D+00  E= 1.360031D+01

 Vector  337  Occ=0.000000D+00  E= 1.362612D+01

 Vector  338  Occ=0.000000D+00  E= 1.365088D+01

 Vector  339  Occ=0.000000D+00  E= 1.420921D+01

 Vector  340  Occ=0.000000D+00  E= 1.427176D+01

 Vector  341  Occ=0.000000D+00  E= 1.468303D+01

 Vector  342  Occ=0.000000D+00  E= 1.499477D+01

 Vector  343  Occ=0.000000D+00  E= 1.513054D+01

 Vector  344  Occ=0.000000D+00  E= 1.596021D+01

 Vector  345  Occ=0.000000D+00  E= 1.603580D+01

 Vector  346  Occ=0.000000D+00  E= 1.647953D+01

 Vector  347  Occ=0.000000D+00  E= 1.651563D+01

 Vector  348  Occ=0.000000D+00  E= 1.666484D+01

 Vector  349  Occ=0.000000D+00  E= 1.674977D+01

 Vector  350  Occ=0.000000D+00  E= 1.740047D+01

 Vector  351  Occ=0.000000D+00  E= 1.813101D+01

 Vector  352  Occ=0.000000D+00  E= 1.943105D+01

 Vector  353  Occ=0.000000D+00  E= 2.158779D+01

 Vector  354  Occ=0.000000D+00  E= 2.772342D+01

 Vector  355  Occ=0.000000D+00  E= 2.990039D+01

     Multipole analysis of the density
     ---------------------------------

     L   x y z        total         alpha         beta         nuclear
     -   - - -        -----         -----         ----         -------
     0   0 0 0     -0.000000    -23.000000    -22.000000     45.000000

     1   1 0 0     -0.379977    -27.580212    -26.354400     53.554636
     1   0 1 0     -0.489445    -43.838390    -42.024679     85.373624
     1   0 0 1      1.293757     51.734877     48.531229    -98.972349

     2   2 0 0    -25.297520    -64.216749    -61.575487    100.494716
     2   1 1 0     -3.383952    -86.145181    -82.427690    165.188919
     2   1 0 1      1.264417     74.477203     70.810250   -144.023035
     2   0 2 0    -29.365801   -157.488800   -150.845504    278.968502
     2   0 1 1      1.554588     99.036407     94.837259   -192.319078

 Total times  cpu:      133.5s     wall:      136.0s
