         Total DFT energy =     -699.437208306352
@ Step       Energy      Delta E   Gmax     Grms     Xrms     Xmax   Walltime
@ ---- ---------------- -------- -------- -------- -------- -------- --------
@    0    -699.43720831  0.0D+00  0.07878  0.02653  0.00000  0.00000     81.4
         Total DFT energy =     -699.444556236438
         Total DFT energy =   -699.444556236438
@    1    -699.44455624 -7.3D-03  0.02734  0.00762  0.04742  0.12076    145.3
         Total DFT energy =     -699.446802987735
         Total DFT energy =   -699.446802987735
@    2    -699.44680299 -2.2D-03  0.01021  0.00422  0.04012  0.11389    205.2
         Total DFT energy =     -699.447106300712
         Total DFT energy =     -699.447136366161
@    3    -699.44713637 -3.3D-04  0.00549  0.00238  0.01227  0.02479    285.0
         Total DFT energy =     -699.447261196494
         Total DFT energy =     -699.447280117988
@    4    -699.44728012 -1.4D-04  0.00109  0.00049  0.00955  0.02016    353.0
         Total DFT energy =     -699.447284214013
         Total DFT energy =   -699.447284214013
@    5    -699.44728421 -4.1D-06  0.00081  0.00036  0.00234  0.00473    389.9
         Total DFT energy =     -699.447287033644
         Total DFT energy =   -699.447287033644
@    6    -699.44728703 -2.8D-06  0.00020  0.00009  0.00136  0.00271    423.0
         Total DFT energy =     -699.447287444299

                       DFT Final Molecular Orbital Analysis
                       ------------------------------------

 Vector    1  Occ=2.000000D+00  E=-8.808526D+01

 Vector  225  Occ=0.000000D+00  E= 5.409039D+00

 Vector  226  Occ=0.000000D+00  E= 5.504648D+00

 Vector  227  Occ=0.000000D+00  E= 5.670083D+00

 Vector  228  Occ=0.000000D+00  E= 6.008342D+00

 Vector  229  Occ=0.000000D+00  E= 6.046318D+00

 Vector  230  Occ=0.000000D+00  E= 6.118445D+00

 Vector  231  Occ=0.000000D+00  E= 6.155330D+00

 Vector  232  Occ=0.000000D+00  E= 6.192173D+00

 Vector  233  Occ=0.000000D+00  E= 6.230526D+00

 Vector  234  Occ=0.000000D+00  E= 6.251319D+00

 Vector  235  Occ=0.000000D+00  E= 6.258178D+00

 Vector  236  Occ=0.000000D+00  E= 6.283792D+00

 Vector  237  Occ=0.000000D+00  E= 6.300529D+00

 Vector  238  Occ=0.000000D+00  E= 6.323250D+00

 Vector  239  Occ=0.000000D+00  E= 6.325067D+00

 Vector  240  Occ=0.000000D+00  E= 6.370634D+00

 Vector  241  Occ=0.000000D+00  E= 6.430588D+00

 Vector  242  Occ=0.000000D+00  E= 6.445298D+00

 Vector  243  Occ=0.000000D+00  E= 6.454887D+00

 Vector  244  Occ=0.000000D+00  E= 6.470732D+00

 Vector  245  Occ=0.000000D+00  E= 6.489652D+00

 Vector  246  Occ=0.000000D+00  E= 6.506720D+00

 Vector  247  Occ=0.000000D+00  E= 6.520994D+00

 Vector  248  Occ=0.000000D+00  E= 6.547519D+00

 Vector  249  Occ=0.000000D+00  E= 6.551514D+00

 Vector  250  Occ=0.000000D+00  E= 6.561398D+00

 Vector  251  Occ=0.000000D+00  E= 6.627753D+00

 Vector  252  Occ=0.000000D+00  E= 6.662399D+00

 Vector  253  Occ=0.000000D+00  E= 6.677532D+00

 Vector  254  Occ=0.000000D+00  E= 6.680073D+00

 Vector  255  Occ=0.000000D+00  E= 6.684309D+00

 Vector  256  Occ=0.000000D+00  E= 6.722158D+00

 Vector  257  Occ=0.000000D+00  E= 6.732424D+00

 Vector  258  Occ=0.000000D+00  E= 6.748784D+00

 Vector  259  Occ=0.000000D+00  E= 6.760482D+00

 Vector  260  Occ=0.000000D+00  E= 6.768126D+00

 Vector  261  Occ=0.000000D+00  E= 6.778011D+00

 Vector  262  Occ=0.000000D+00  E= 6.815142D+00

 Vector  263  Occ=0.000000D+00  E= 6.819861D+00

 Vector  264  Occ=0.000000D+00  E= 6.841146D+00

 Vector  265  Occ=0.000000D+00  E= 6.875015D+00

 Vector  266  Occ=0.000000D+00  E= 6.887198D+00

 Vector  267  Occ=0.000000D+00  E= 6.924870D+00

 Vector  268  Occ=0.000000D+00  E= 6.984756D+00

 Vector  269  Occ=0.000000D+00  E= 7.056560D+00

 Vector  270  Occ=0.000000D+00  E= 7.084635D+00

 Vector  271  Occ=0.000000D+00  E= 7.211150D+00

 Vector  272  Occ=0.000000D+00  E= 7.304201D+00

 Vector  273  Occ=0.000000D+00  E= 7.343302D+00

 Vector  274  Occ=0.000000D+00  E= 7.349261D+00

 Vector  275  Occ=0.000000D+00  E= 7.421661D+00

 Vector  276  Occ=0.000000D+00  E= 7.456969D+00

 Vector  277  Occ=0.000000D+00  E= 7.467749D+00

 Vector  278  Occ=0.000000D+00  E= 7.614644D+00

 Vector  279  Occ=0.000000D+00  E= 7.903660D+00

 Vector  280  Occ=0.000000D+00  E= 7.971051D+00

 Vector  281  Occ=0.000000D+00  E= 8.108480D+00

 Vector  282  Occ=0.000000D+00  E= 8.227139D+00

 Vector  283  Occ=0.000000D+00  E= 8.850940D+00

 Vector  284  Occ=0.000000D+00  E= 1.280678D+01

 Vector  285  Occ=0.000000D+00  E= 1.297563D+01

 Vector  286  Occ=0.000000D+00  E= 1.315155D+01

 Vector  287  Occ=0.000000D+00  E= 1.352311D+01

 Vector  288  Occ=0.000000D+00  E= 1.360735D+01

 Vector  289  Occ=0.000000D+00  E= 1.391956D+01

 Vector  290  Occ=0.000000D+00  E= 1.395345D+01

 Vector  291  Occ=0.000000D+00  E= 1.415134D+01

 Vector  292  Occ=0.000000D+00  E= 1.420086D+01

 Vector  293  Occ=0.000000D+00  E= 1.431227D+01

 Vector  294  Occ=0.000000D+00  E= 1.468401D+01

 Vector  295  Occ=0.000000D+00  E= 1.525791D+01

 Vector  296  Occ=0.000000D+00  E= 1.597088D+01

 Vector  297  Occ=0.000000D+00  E= 1.650539D+01

 Vector  298  Occ=0.000000D+00  E= 1.656385D+01

 Vector  299  Occ=0.000000D+00  E= 1.673822D+01

 Vector  300  Occ=0.000000D+00  E= 1.707896D+01

 Vector  301  Occ=0.000000D+00  E= 1.730801D+01

 Vector  302  Occ=0.000000D+00  E= 1.735235D+01

 Vector  303  Occ=0.000000D+00  E= 1.753852D+01

 Vector  304  Occ=0.000000D+00  E= 3.236261D+01

     Multipole analysis of the density
     ---------------------------------

     L   x y z        total         alpha         beta         nuclear
     -   - - -        -----         -----         ----         -------
     0   0 0 0     -1.000000    -25.000000    -25.000000     49.000000

     1   1 0 0      0.412718      0.130606      0.130606      0.151505
     1   0 1 0      0.172873      0.333469      0.333469     -0.494064
     1   0 0 1      0.564547     -4.562805     -4.562805      9.690157

     2   2 0 0    -32.782784    -62.581647    -62.581647     92.380509
     2   1 1 0      0.434790     -0.543879     -0.543879      1.522547
     2   1 0 1      2.092467     -0.322309     -0.322309      2.737084
     2   0 2 0    -33.682384    -61.547668    -61.547668     89.412952
     2   0 1 1      0.857801      0.509838      0.509838     -0.161876

         Total DFT energy =   -699.447287444299
@    7    -699.44728744 -4.1D-07  0.00014  0.00006  0.00044  0.00114    445.2
@    7    -699.44728744 -4.1D-07  0.00014  0.00006  0.00044  0.00114    445.2

 Output coordinates in angstroms (scale by  1.889725989 to convert to a.u.)

  No.       Tag          Charge          X              Y              Z
 ---- ---------------- ---------- -------------- -------------- --------------
    1 S                   16.0000    -0.01014757    -0.00554068    -0.05263907
    2 O                    8.0000     0.01368123     1.44997028    -0.35004764
    3 O                    8.0000     1.25741738    -0.70988163    -0.38308672
    4 O                    8.0000    -0.08475444    -0.08580227     1.66469404
    5 O                    8.0000    -1.25293448    -0.71131127    -0.42697042
    6 H                    1.0000     0.77525689     0.28340256     1.93332181

 Total times  cpu:      437.6s     wall:      445.3s
