 Output coordinates in angstroms (scale by  1.889725989 to convert to a.u.)

  No.       Tag          Charge          X              Y              Z
 ---- ---------------- ---------- -------------- -------------- --------------
    1 S                   16.0000    -0.01014757    -0.00554068    -0.05263907
    2 O                    8.0000     0.01368123     1.44997028    -0.35004764
    3 O                    8.0000     1.25741738    -0.70988163    -0.38308672
    4 O                    8.0000    -0.08475444    -0.08580227     1.66469404
    5 O                    8.0000    -1.25293448    -0.71131127    -0.42697042
    6 H                    1.0000     0.77525689     0.28340256     1.93332181

         Total DFT energy =     -699.281383106091

                    DFT Final Alpha Molecular Orbital Analysis
                    ------------------------------------------

 Vector    1  Occ=1.000000D+00  E=-8.834789D+01

 Vector  225  Occ=0.000000D+00  E= 5.177528D+00

 Vector  226  Occ=0.000000D+00  E= 5.277239D+00

 Vector  227  Occ=0.000000D+00  E= 5.459559D+00

 Vector  228  Occ=0.000000D+00  E= 5.762069D+00

 Vector  229  Occ=0.000000D+00  E= 5.808600D+00

 Vector  230  Occ=0.000000D+00  E= 5.878575D+00

 Vector  231  Occ=0.000000D+00  E= 5.928968D+00

 Vector  232  Occ=0.000000D+00  E= 5.951164D+00

 Vector  233  Occ=0.000000D+00  E= 5.972806D+00

 Vector  234  Occ=0.000000D+00  E= 5.992890D+00

 Vector  235  Occ=0.000000D+00  E= 5.999131D+00

 Vector  236  Occ=0.000000D+00  E= 6.032003D+00

 Vector  237  Occ=0.000000D+00  E= 6.045748D+00

 Vector  238  Occ=0.000000D+00  E= 6.071710D+00

 Vector  239  Occ=0.000000D+00  E= 6.076009D+00

 Vector  240  Occ=0.000000D+00  E= 6.125604D+00

 Vector  241  Occ=0.000000D+00  E= 6.187113D+00

 Vector  242  Occ=0.000000D+00  E= 6.190543D+00

 Vector  243  Occ=0.000000D+00  E= 6.205464D+00

 Vector  244  Occ=0.000000D+00  E= 6.218960D+00

 Vector  245  Occ=0.000000D+00  E= 6.247364D+00

 Vector  246  Occ=0.000000D+00  E= 6.251589D+00

 Vector  247  Occ=0.000000D+00  E= 6.273135D+00

 Vector  248  Occ=0.000000D+00  E= 6.291691D+00

 Vector  249  Occ=0.000000D+00  E= 6.293722D+00

 Vector  250  Occ=0.000000D+00  E= 6.301961D+00

 Vector  251  Occ=0.000000D+00  E= 6.382938D+00

 Vector  252  Occ=0.000000D+00  E= 6.399126D+00

 Vector  253  Occ=0.000000D+00  E= 6.417373D+00

 Vector  254  Occ=0.000000D+00  E= 6.424677D+00

 Vector  255  Occ=0.000000D+00  E= 6.446731D+00

 Vector  256  Occ=0.000000D+00  E= 6.478917D+00

 Vector  257  Occ=0.000000D+00  E= 6.490621D+00

 Vector  258  Occ=0.000000D+00  E= 6.495036D+00

 Vector  259  Occ=0.000000D+00  E= 6.509167D+00

 Vector  260  Occ=0.000000D+00  E= 6.515811D+00

 Vector  261  Occ=0.000000D+00  E= 6.532033D+00

 Vector  262  Occ=0.000000D+00  E= 6.561140D+00

 Vector  263  Occ=0.000000D+00  E= 6.569267D+00

 Vector  264  Occ=0.000000D+00  E= 6.615018D+00

 Vector  265  Occ=0.000000D+00  E= 6.628472D+00

 Vector  266  Occ=0.000000D+00  E= 6.648924D+00

 Vector  267  Occ=0.000000D+00  E= 6.680209D+00

 Vector  268  Occ=0.000000D+00  E= 6.744543D+00

 Vector  269  Occ=0.000000D+00  E= 6.827678D+00

 Vector  270  Occ=0.000000D+00  E= 6.843666D+00

 Vector  271  Occ=0.000000D+00  E= 6.952623D+00

 Vector  272  Occ=0.000000D+00  E= 7.041484D+00

 Vector  273  Occ=0.000000D+00  E= 7.091338D+00

 Vector  274  Occ=0.000000D+00  E= 7.093271D+00

 Vector  275  Occ=0.000000D+00  E= 7.160099D+00

 Vector  276  Occ=0.000000D+00  E= 7.197533D+00

 Vector  277  Occ=0.000000D+00  E= 7.208979D+00

 Vector  278  Occ=0.000000D+00  E= 7.383988D+00

 Vector  279  Occ=0.000000D+00  E= 7.645452D+00

 Vector  280  Occ=0.000000D+00  E= 7.751901D+00

 Vector  281  Occ=0.000000D+00  E= 7.850262D+00

 Vector  282  Occ=0.000000D+00  E= 7.975030D+00

 Vector  283  Occ=0.000000D+00  E= 8.647479D+00

 Vector  284  Occ=0.000000D+00  E= 1.255775D+01

 Vector  285  Occ=0.000000D+00  E= 1.273085D+01

 Vector  286  Occ=0.000000D+00  E= 1.290451D+01

 Vector  287  Occ=0.000000D+00  E= 1.328946D+01

 Vector  288  Occ=0.000000D+00  E= 1.336599D+01

 Vector  289  Occ=0.000000D+00  E= 1.368416D+01

 Vector  290  Occ=0.000000D+00  E= 1.371605D+01

 Vector  291  Occ=0.000000D+00  E= 1.390357D+01

 Vector  292  Occ=0.000000D+00  E= 1.395343D+01

 Vector  293  Occ=0.000000D+00  E= 1.406431D+01

 Vector  294  Occ=0.000000D+00  E= 1.446368D+01

 Vector  295  Occ=0.000000D+00  E= 1.504203D+01

 Vector  296  Occ=0.000000D+00  E= 1.573938D+01

 Vector  297  Occ=0.000000D+00  E= 1.624215D+01

 Vector  298  Occ=0.000000D+00  E= 1.630427D+01

 Vector  299  Occ=0.000000D+00  E= 1.650463D+01

 Vector  300  Occ=0.000000D+00  E= 1.685444D+01

 Vector  301  Occ=0.000000D+00  E= 1.703727D+01

 Vector  302  Occ=0.000000D+00  E= 1.708498D+01

 Vector  303  Occ=0.000000D+00  E= 1.727201D+01

 Vector  304  Occ=0.000000D+00  E= 3.212674D+01

     Multipole analysis of the density
     ---------------------------------

     L   x y z        total         alpha         beta         nuclear
     -   - - -        -----         -----         ----         -------
     0   0 0 0     -0.000000    -25.000000    -24.000000     49.000000

     1   1 0 0      0.491335      0.121435      0.218394      0.151506
     1   0 1 0      0.212379      0.318088      0.388356     -0.494064
     1   0 0 1      0.396193     -4.275177     -5.018787      9.690157

     2   2 0 0    -26.194215    -61.518167    -57.056557     92.380509
     2   1 1 0      0.403014     -0.501696     -0.617838      1.522547
     2   1 0 1      2.202424     -0.247190     -0.287471      2.737084
     2   0 2 0    -27.086496    -60.548854    -55.950593     89.412952
     2   0 1 1      0.910337      0.517114      0.555100     -0.161876

 Total times  cpu:       79.9s     wall:       81.6s
