         Total DFT energy =     -641.675908366792
@ Step       Energy      Delta E   Gmax     Grms     Xrms     Xmax   Walltime
@ ---- ---------------- -------- -------- -------- -------- -------- --------
@    0    -641.67590837  0.0D+00  0.08131  0.02628  0.00000  0.00000    160.1
         Total DFT energy =     -641.683242386829
         Total DFT energy =     -641.684230057008
@    1    -641.68423006 -8.3D-03  0.01250  0.00424  0.04635  0.15048    258.1
         Total DFT energy =     -641.684631825029
         Total DFT energy =     -641.684649608983
@    2    -641.68464961 -4.2D-04  0.00277  0.00117  0.01864  0.04401    338.1
         Total DFT energy =     -641.684668858222
         Total DFT energy =     -641.684673661474
@    3    -641.68467366 -2.4D-05  0.00070  0.00030  0.00478  0.01117    399.1
         Total DFT energy =     -641.684677328924
         Total DFT energy =   -641.684677328924
@    4    -641.68467733 -3.7D-06  0.00015  0.00006  0.00162  0.00263    435.5
         Total DFT energy =     -641.684677619465

                       DFT Final Molecular Orbital Analysis
                       ------------------------------------

 Vector    1  Occ=2.000000D+00  E=-7.583182D+01

 Vector  200  Occ=0.000000D+00  E= 5.675787D+00

 Vector  201  Occ=0.000000D+00  E= 5.675826D+00

 Vector  202  Occ=0.000000D+00  E= 5.675926D+00

 Vector  203  Occ=0.000000D+00  E= 5.985164D+00

 Vector  204  Occ=0.000000D+00  E= 6.116716D+00

 Vector  205  Occ=0.000000D+00  E= 6.116749D+00

 Vector  206  Occ=0.000000D+00  E= 6.116894D+00

 Vector  207  Occ=0.000000D+00  E= 6.601479D+00

 Vector  208  Occ=0.000000D+00  E= 6.605348D+00

 Vector  209  Occ=0.000000D+00  E= 6.624653D+00

 Vector  210  Occ=0.000000D+00  E= 6.625006D+00

 Vector  211  Occ=0.000000D+00  E= 6.638007D+00

 Vector  212  Occ=0.000000D+00  E= 6.638114D+00

 Vector  213  Occ=0.000000D+00  E= 6.638369D+00

 Vector  214  Occ=0.000000D+00  E= 6.656504D+00

 Vector  215  Occ=0.000000D+00  E= 6.656799D+00

 Vector  216  Occ=0.000000D+00  E= 6.656910D+00

 Vector  217  Occ=0.000000D+00  E= 6.780565D+00

 Vector  218  Occ=0.000000D+00  E= 6.830253D+00

 Vector  219  Occ=0.000000D+00  E= 6.830308D+00

 Vector  220  Occ=0.000000D+00  E= 6.830461D+00

 Vector  221  Occ=0.000000D+00  E= 6.830942D+00

 Vector  222  Occ=0.000000D+00  E= 6.831090D+00

 Vector  223  Occ=0.000000D+00  E= 6.831408D+00

 Vector  224  Occ=0.000000D+00  E= 6.866922D+00

 Vector  225  Occ=0.000000D+00  E= 6.867007D+00

 Vector  226  Occ=0.000000D+00  E= 6.932955D+00

 Vector  227  Occ=0.000000D+00  E= 6.933301D+00

 Vector  228  Occ=0.000000D+00  E= 6.933434D+00

 Vector  229  Occ=0.000000D+00  E= 6.978319D+00

 Vector  230  Occ=0.000000D+00  E= 6.978433D+00

 Vector  231  Occ=0.000000D+00  E= 6.978738D+00

 Vector  232  Occ=0.000000D+00  E= 7.015586D+00

 Vector  233  Occ=0.000000D+00  E= 7.015720D+00

 Vector  234  Occ=0.000000D+00  E= 7.015968D+00

 Vector  235  Occ=0.000000D+00  E= 7.066174D+00

 Vector  236  Occ=0.000000D+00  E= 7.066248D+00

 Vector  237  Occ=0.000000D+00  E= 7.118951D+00

 Vector  238  Occ=0.000000D+00  E= 7.119013D+00

 Vector  239  Occ=0.000000D+00  E= 7.119155D+00

 Vector  240  Occ=0.000000D+00  E= 7.163139D+00

 Vector  241  Occ=0.000000D+00  E= 7.163213D+00

 Vector  242  Occ=0.000000D+00  E= 7.163257D+00

 Vector  243  Occ=0.000000D+00  E= 7.273183D+00

 Vector  244  Occ=0.000000D+00  E= 7.312033D+00

 Vector  245  Occ=0.000000D+00  E= 7.312240D+00

 Vector  246  Occ=0.000000D+00  E= 7.312317D+00

 Vector  247  Occ=0.000000D+00  E= 7.468594D+00

 Vector  248  Occ=0.000000D+00  E= 7.469295D+00

 Vector  249  Occ=0.000000D+00  E= 7.469583D+00

 Vector  250  Occ=0.000000D+00  E= 7.654329D+00

 Vector  251  Occ=0.000000D+00  E= 7.655079D+00

 Vector  252  Occ=0.000000D+00  E= 7.719473D+00

 Vector  253  Occ=0.000000D+00  E= 7.767287D+00

 Vector  254  Occ=0.000000D+00  E= 7.767527D+00

 Vector  255  Occ=0.000000D+00  E= 7.767752D+00

 Vector  256  Occ=0.000000D+00  E= 8.575454D+00

 Vector  257  Occ=0.000000D+00  E= 8.575827D+00

 Vector  258  Occ=0.000000D+00  E= 8.576214D+00

 Vector  259  Occ=0.000000D+00  E= 1.228907D+01

 Vector  260  Occ=0.000000D+00  E= 1.252741D+01

 Vector  261  Occ=0.000000D+00  E= 1.252972D+01

 Vector  262  Occ=0.000000D+00  E= 1.253058D+01

 Vector  263  Occ=0.000000D+00  E= 1.395744D+01

 Vector  264  Occ=0.000000D+00  E= 1.395750D+01

 Vector  265  Occ=0.000000D+00  E= 1.395767D+01

 Vector  266  Occ=0.000000D+00  E= 1.399136D+01

 Vector  267  Occ=0.000000D+00  E= 1.399281D+01

 Vector  268  Occ=0.000000D+00  E= 1.430664D+01

 Vector  269  Occ=0.000000D+00  E= 1.430715D+01

 Vector  270  Occ=0.000000D+00  E= 1.430733D+01

 Vector  271  Occ=0.000000D+00  E= 1.627754D+01

 Vector  272  Occ=0.000000D+00  E= 1.627847D+01

 Vector  273  Occ=0.000000D+00  E= 1.627911D+01

 Vector  274  Occ=0.000000D+00  E= 1.700900D+01

 Vector  275  Occ=0.000000D+00  E= 1.744274D+01

 Vector  276  Occ=0.000000D+00  E= 1.744343D+01

 Vector  277  Occ=0.000000D+00  E= 1.744368D+01

 Vector  278  Occ=0.000000D+00  E= 1.779370D+01

 Vector  279  Occ=0.000000D+00  E= 1.925601D+01

     Multipole analysis of the density
     ---------------------------------

     L   x y z        total         alpha         beta         nuclear
     -   - - -        -----         -----         ----         -------
     0   0 0 0     -3.000000    -25.000000    -25.000000     47.000000

     1   1 0 0     -0.000991     -0.008571     -0.008571      0.016151
     1   0 1 0      0.003258      0.030368      0.030368     -0.057478
     1   0 0 1      0.190487      1.590886      1.590886     -2.991284

     2   2 0 0    -53.428088    -76.038410    -76.038410     98.648732
     2   1 1 0     -0.000206      0.005157      0.005157     -0.010520
     2   1 0 1      0.000997     -0.008588     -0.008588      0.018173
     2   0 2 0    -53.432476    -76.004329    -76.004329     98.576182
     2   0 1 1     -0.002308      0.032544      0.032544     -0.067396

         Total DFT energy =   -641.684677619465
@    5    -641.68467762 -2.9D-07  0.00006  0.00003  0.00043  0.00097    466.9
@    5    -641.68467762 -2.9D-07  0.00006  0.00003  0.00043  0.00097    466.9

 Output coordinates in angstroms (scale by  1.889725989 to convert to a.u.)

  No.       Tag          Charge          X              Y              Z
 ---- ---------------- ---------- -------------- -------------- --------------
    1 P                   15.0000     0.00016271    -0.00062972    -0.03371994
    2 O                    8.0000    -0.00147621     1.52022332    -0.55910011
    3 O                    8.0000     1.31267574    -0.75474270    -0.57897002
    4 O                    8.0000     0.00482597    -0.01336791     1.57534523
    5 O                    8.0000    -1.31526221    -0.75473398    -0.57191515

 Total times  cpu:      458.0s     wall:      466.9s
