         Total DFT energy =     -205.573658037498
@ Step       Energy      Delta E   Gmax     Grms     Xrms     Xmax   Walltime
@ ---- ---------------- -------- -------- -------- -------- -------- --------
@    0    -205.57365804  0.0D+00  0.10995  0.05005  0.00000  0.00000     11.5
         Total DFT energy =     -205.591736974379
         Total DFT energy =     -205.592102826706
@    1    -205.59210283 -1.8D-02  0.04293  0.02547  0.09519  0.16100     27.1
         Total DFT energy =     -205.576001826581
         Total DFT energy =     -205.596316887225
@    2    -205.59631689 -4.2D-03  0.03236  0.01426  0.03416  0.07069     45.0
         Total DFT energy =     -205.598567124567
         Total DFT energy =     -205.598620798937
@    3    -205.59862080 -2.3D-03  0.01223  0.00766  0.04195  0.07430     58.3
         Total DFT energy =     -205.599296063653
         Total DFT energy =   -205.599296063653
@    4    -205.59929606 -6.8D-04  0.00603  0.00303  0.02510  0.05294     66.1
         Total DFT energy =     -205.599386020805
         Total DFT energy =   -205.599386020805
@    5    -205.59938602 -9.0D-05  0.00191  0.00103  0.01092  0.01899     73.4
         Total DFT energy =     -205.599408342186
         Total DFT energy =     -205.599428702100
@    6    -205.59942870 -4.3D-05  0.00265  0.00129  0.00986  0.01827     82.4
         Total DFT energy =     -205.599439781147
         Total DFT energy =     -205.599440727038
@    7    -205.59944073 -1.2D-05  0.00043  0.00019  0.00248  0.00536     89.6
         Total DFT energy =     -205.599440896934

                       DFT Final Molecular Orbital Analysis
                       ------------------------------------

 Vector    1  Occ=2.000000D+00  E=-1.884513D+01

 Vector  111  Occ=0.000000D+00  E= 2.731974D+00

 Vector  112  Occ=0.000000D+00  E= 2.736611D+00

 Vector  113  Occ=0.000000D+00  E= 2.810944D+00

 Vector  114  Occ=0.000000D+00  E= 2.942101D+00

 Vector  115  Occ=0.000000D+00  E= 2.945957D+00

 Vector  116  Occ=0.000000D+00  E= 3.098564D+00

 Vector  117  Occ=0.000000D+00  E= 3.199577D+00

 Vector  118  Occ=0.000000D+00  E= 3.584173D+00

 Vector  119  Occ=0.000000D+00  E= 3.665125D+00

 Vector  120  Occ=0.000000D+00  E= 3.727690D+00

 Vector  121  Occ=0.000000D+00  E= 3.818926D+00

 Vector  122  Occ=0.000000D+00  E= 3.986788D+00

 Vector  123  Occ=0.000000D+00  E= 3.992148D+00

 Vector  124  Occ=0.000000D+00  E= 4.168283D+00

 Vector  125  Occ=0.000000D+00  E= 4.239308D+00

 Vector  126  Occ=0.000000D+00  E= 4.354737D+00

 Vector  127  Occ=0.000000D+00  E= 4.415786D+00

 Vector  128  Occ=0.000000D+00  E= 4.434876D+00

 Vector  129  Occ=0.000000D+00  E= 4.467108D+00

 Vector  130  Occ=0.000000D+00  E= 4.489840D+00

 Vector  131  Occ=0.000000D+00  E= 4.496719D+00

 Vector  132  Occ=0.000000D+00  E= 4.517004D+00

 Vector  133  Occ=0.000000D+00  E= 4.571328D+00

 Vector  134  Occ=0.000000D+00  E= 4.645183D+00

 Vector  135  Occ=0.000000D+00  E= 4.766619D+00

 Vector  136  Occ=0.000000D+00  E= 4.781455D+00

 Vector  137  Occ=0.000000D+00  E= 4.861298D+00

 Vector  138  Occ=0.000000D+00  E= 4.919411D+00

 Vector  139  Occ=0.000000D+00  E= 4.935500D+00

 Vector  140  Occ=0.000000D+00  E= 5.024494D+00

 Vector  141  Occ=0.000000D+00  E= 5.036025D+00

 Vector  142  Occ=0.000000D+00  E= 5.086057D+00

 Vector  143  Occ=0.000000D+00  E= 5.215417D+00

 Vector  144  Occ=0.000000D+00  E= 5.225738D+00

 Vector  145  Occ=0.000000D+00  E= 5.311078D+00

 Vector  146  Occ=0.000000D+00  E= 5.451649D+00

 Vector  147  Occ=0.000000D+00  E= 5.677766D+00

 Vector  148  Occ=0.000000D+00  E= 5.869078D+00

 Vector  149  Occ=0.000000D+00  E= 5.952416D+00

 Vector  150  Occ=0.000000D+00  E= 5.972373D+00

 Vector  151  Occ=0.000000D+00  E= 6.034554D+00

 Vector  152  Occ=0.000000D+00  E= 6.114504D+00

 Vector  153  Occ=0.000000D+00  E= 6.134492D+00

 Vector  154  Occ=0.000000D+00  E= 6.140019D+00

 Vector  155  Occ=0.000000D+00  E= 6.229489D+00

 Vector  156  Occ=0.000000D+00  E= 6.272935D+00

 Vector  157  Occ=0.000000D+00  E= 6.365563D+00

 Vector  158  Occ=0.000000D+00  E= 6.488033D+00

 Vector  159  Occ=0.000000D+00  E= 6.488793D+00

 Vector  160  Occ=0.000000D+00  E= 6.556291D+00

 Vector  161  Occ=0.000000D+00  E= 6.585898D+00

 Vector  162  Occ=0.000000D+00  E= 6.592088D+00

 Vector  163  Occ=0.000000D+00  E= 6.618937D+00

 Vector  164  Occ=0.000000D+00  E= 6.755625D+00

 Vector  165  Occ=0.000000D+00  E= 6.830808D+00

 Vector  166  Occ=0.000000D+00  E= 6.853783D+00

 Vector  167  Occ=0.000000D+00  E= 7.036622D+00

 Vector  168  Occ=0.000000D+00  E= 7.045083D+00

 Vector  169  Occ=0.000000D+00  E= 7.053743D+00

 Vector  170  Occ=0.000000D+00  E= 7.155282D+00

 Vector  171  Occ=0.000000D+00  E= 7.305470D+00

 Vector  172  Occ=0.000000D+00  E= 7.538971D+00

 Vector  173  Occ=0.000000D+00  E= 7.685144D+00

 Vector  174  Occ=0.000000D+00  E= 8.066628D+00

 Vector  175  Occ=0.000000D+00  E= 8.421230D+00

 Vector  176  Occ=0.000000D+00  E= 9.540081D+00

 Vector  177  Occ=0.000000D+00  E= 1.085667D+01

 Vector  178  Occ=0.000000D+00  E= 1.165069D+01

 Vector  179  Occ=0.000000D+00  E= 1.182315D+01

 Vector  180  Occ=0.000000D+00  E= 1.318096D+01

 Vector  181  Occ=0.000000D+00  E= 1.337600D+01

 Vector  182  Occ=0.000000D+00  E= 1.369684D+01

 Vector  183  Occ=0.000000D+00  E= 1.392766D+01

 Vector  184  Occ=0.000000D+00  E= 1.456977D+01

 Vector  185  Occ=0.000000D+00  E= 1.519603D+01

 Vector  186  Occ=0.000000D+00  E= 1.592867D+01

 Vector  187  Occ=0.000000D+00  E= 1.633378D+01

 Vector  188  Occ=0.000000D+00  E= 1.692461D+01

 Vector  189  Occ=0.000000D+00  E= 1.713125D+01

 Vector  190  Occ=0.000000D+00  E= 2.137382D+01

     Multipole analysis of the density
     ---------------------------------

     L   x y z        total         alpha         beta         nuclear
     -   - - -        -----         -----         ----         -------
     0   0 0 0     -0.000000    -12.000000    -12.000000     24.000000

     1   1 0 0      0.081310     -1.242550     -1.242550      2.566410
     1   0 1 0      0.120873     -1.844711     -1.844711      3.810295
     1   0 0 1     -0.558110     10.354383     10.354383    -21.266877

     2   2 0 0    -12.554442    -15.264626    -15.264626     17.974809
     2   1 1 0     -0.742208    -16.061850    -16.061850     31.381493
     2   1 0 1     -0.781425      1.339056      1.339056     -3.459537
     2   0 2 0    -13.499006    -34.162542    -34.162542     54.826078
     2   0 1 1     -1.315437      1.818179      1.818179     -4.951796

         Total DFT energy =   -205.599440896934
@    8    -205.59944090 -1.7D-07  0.00025  0.00012  0.00039  0.00067     93.1
@    8    -205.59944090 -1.7D-07  0.00025  0.00012  0.00039  0.00067     93.1

 Output coordinates in angstroms (scale by  1.889725989 to convert to a.u.)

  No.       Tag          Charge          X              Y              Z
 ---- ---------------- ---------- -------------- -------------- --------------
    1 N                    7.0000    -0.03416732    -0.05440795     0.06144669
    2 O                    8.0000     0.60739893     1.04530668    -0.57173846
    3 O                    8.0000    -0.47371597    -0.85418442    -0.69605099
    4 H                    1.0000     0.52779345     0.86819897    -1.54175845

 Total times  cpu:       90.0s     wall:       93.1s
