 Output coordinates in angstroms (scale by  1.889725989 to convert to a.u.)

  No.       Tag          Charge          X              Y              Z
 ---- ---------------- ---------- -------------- -------------- --------------
    1 C                    6.0000    -0.00599936     0.07272859     0.07406657
    2 C                    6.0000    -0.02293461    -0.08238570     1.62663677
    3 O                    8.0000     0.60503861     1.12204283    -0.31583017
    4 O                    8.0000    -0.57269740    -0.81633184    -0.60510234
    5 O                    8.0000     0.66483773     1.01221967     2.23025371
    6 H                    1.0000    -1.07464496    -0.12763445     1.96821245
    7 H                    1.0000     0.45278542    -1.04554448     1.89224959
    8 H                    1.0000     0.91350657     1.49596639     1.38655442

         Total DFT energy =     -303.422655467642

                    DFT Final Alpha Molecular Orbital Analysis
                    ------------------------------------------

 Vector    1  Occ=1.000000D+00  E=-1.885404D+01

 Vector  271  Occ=0.000000D+00  E= 5.154113D+00

 Vector  272  Occ=0.000000D+00  E= 5.162082D+00

 Vector  273  Occ=0.000000D+00  E= 5.190379D+00

 Vector  274  Occ=0.000000D+00  E= 5.238484D+00

 Vector  275  Occ=0.000000D+00  E= 5.256377D+00

 Vector  276  Occ=0.000000D+00  E= 5.360259D+00

 Vector  277  Occ=0.000000D+00  E= 5.437706D+00

 Vector  278  Occ=0.000000D+00  E= 5.528579D+00

 Vector  279  Occ=0.000000D+00  E= 5.627624D+00

 Vector  280  Occ=0.000000D+00  E= 5.710861D+00

 Vector  281  Occ=0.000000D+00  E= 5.779348D+00

 Vector  282  Occ=0.000000D+00  E= 6.010863D+00

 Vector  283  Occ=0.000000D+00  E= 6.032576D+00

 Vector  284  Occ=0.000000D+00  E= 6.062568D+00

 Vector  285  Occ=0.000000D+00  E= 6.191929D+00

 Vector  286  Occ=0.000000D+00  E= 6.206722D+00

 Vector  287  Occ=0.000000D+00  E= 6.269419D+00

 Vector  288  Occ=0.000000D+00  E= 6.323589D+00

 Vector  289  Occ=0.000000D+00  E= 6.332124D+00

 Vector  290  Occ=0.000000D+00  E= 6.346903D+00

 Vector  291  Occ=0.000000D+00  E= 6.383456D+00

 Vector  292  Occ=0.000000D+00  E= 6.418083D+00

 Vector  293  Occ=0.000000D+00  E= 6.433200D+00

 Vector  294  Occ=0.000000D+00  E= 6.437675D+00

 Vector  295  Occ=0.000000D+00  E= 6.454286D+00

 Vector  296  Occ=0.000000D+00  E= 6.475366D+00

 Vector  297  Occ=0.000000D+00  E= 6.506213D+00

 Vector  298  Occ=0.000000D+00  E= 6.553029D+00

 Vector  299  Occ=0.000000D+00  E= 6.562146D+00

 Vector  300  Occ=0.000000D+00  E= 6.565230D+00

 Vector  301  Occ=0.000000D+00  E= 6.579412D+00

 Vector  302  Occ=0.000000D+00  E= 6.637047D+00

 Vector  303  Occ=0.000000D+00  E= 6.662911D+00

 Vector  304  Occ=0.000000D+00  E= 6.755236D+00

 Vector  305  Occ=0.000000D+00  E= 6.783622D+00

 Vector  306  Occ=0.000000D+00  E= 6.830485D+00

 Vector  307  Occ=0.000000D+00  E= 6.848182D+00

 Vector  308  Occ=0.000000D+00  E= 6.908779D+00

 Vector  309  Occ=0.000000D+00  E= 6.988296D+00

 Vector  310  Occ=0.000000D+00  E= 7.033125D+00

 Vector  311  Occ=0.000000D+00  E= 7.088661D+00

 Vector  312  Occ=0.000000D+00  E= 7.096212D+00

 Vector  313  Occ=0.000000D+00  E= 7.164102D+00

 Vector  314  Occ=0.000000D+00  E= 7.177940D+00

 Vector  315  Occ=0.000000D+00  E= 7.297792D+00

 Vector  316  Occ=0.000000D+00  E= 7.337817D+00

 Vector  317  Occ=0.000000D+00  E= 7.372581D+00

 Vector  318  Occ=0.000000D+00  E= 7.375377D+00

 Vector  319  Occ=0.000000D+00  E= 7.427381D+00

 Vector  320  Occ=0.000000D+00  E= 7.559957D+00

 Vector  321  Occ=0.000000D+00  E= 7.603180D+00

 Vector  322  Occ=0.000000D+00  E= 7.706561D+00

 Vector  323  Occ=0.000000D+00  E= 7.928125D+00

 Vector  324  Occ=0.000000D+00  E= 7.940557D+00

 Vector  325  Occ=0.000000D+00  E= 8.075772D+00

 Vector  326  Occ=0.000000D+00  E= 8.413886D+00

 Vector  327  Occ=0.000000D+00  E= 8.472678D+00

 Vector  328  Occ=0.000000D+00  E= 8.659988D+00

 Vector  329  Occ=0.000000D+00  E= 9.411373D+00

 Vector  330  Occ=0.000000D+00  E= 9.839427D+00

 Vector  331  Occ=0.000000D+00  E= 9.910669D+00

 Vector  332  Occ=0.000000D+00  E= 1.002258D+01

 Vector  333  Occ=0.000000D+00  E= 1.013011D+01

 Vector  334  Occ=0.000000D+00  E= 1.330712D+01

 Vector  335  Occ=0.000000D+00  E= 1.355652D+01

 Vector  336  Occ=0.000000D+00  E= 1.397347D+01

 Vector  337  Occ=0.000000D+00  E= 1.422801D+01

 Vector  338  Occ=0.000000D+00  E= 1.423374D+01

 Vector  339  Occ=0.000000D+00  E= 1.464420D+01

 Vector  340  Occ=0.000000D+00  E= 1.502453D+01

 Vector  341  Occ=0.000000D+00  E= 1.525389D+01

 Vector  342  Occ=0.000000D+00  E= 1.591781D+01

 Vector  343  Occ=0.000000D+00  E= 1.659155D+01

 Vector  344  Occ=0.000000D+00  E= 1.664886D+01

 Vector  345  Occ=0.000000D+00  E= 1.676638D+01

 Vector  346  Occ=0.000000D+00  E= 1.799390D+01

 Vector  347  Occ=0.000000D+00  E= 1.898235D+01

 Vector  348  Occ=0.000000D+00  E= 2.007395D+01

 Vector  349  Occ=0.000000D+00  E= 2.906202D+01

 Vector  350  Occ=0.000000D+00  E= 3.056332D+01

     Multipole analysis of the density
     ---------------------------------

     L   x y z        total         alpha         beta         nuclear
     -   - - -        -----         -----         ----         -------
     0   0 0 0     -0.000000    -20.000000    -19.000000     39.000000

     1   1 0 0     -0.282003     -5.367135     -5.677754     10.762887
     1   0 1 0     -0.439544    -10.295730    -10.568521     20.424707
     1   0 0 1      0.611278    -24.355263    -24.026128     48.992670

     2   2 0 0    -21.199306    -31.569598    -29.933627     40.303919
     2   1 1 0     -0.910177    -29.245020    -27.351855     55.686698
     2   1 0 1     -1.166966    -24.302795    -22.886046     46.021875
     2   0 2 0    -22.023408    -60.952710    -57.559291     96.488593
     2   0 1 1     -1.269128    -34.451023    -31.988654     65.170548

 Total times  cpu:      428.5s     wall:      445.5s
