 Output coordinates in angstroms (scale by  1.889725989 to convert to a.u.)

  No.       Tag          Charge          X              Y              Z
 ---- ---------------- ---------- -------------- -------------- --------------
    1 P                   15.0000     0.00016271    -0.00062972    -0.03371994
    2 O                    8.0000    -0.00147621     1.52022332    -0.55910011
    3 O                    8.0000     1.31267574    -0.75474270    -0.57897002
    4 O                    8.0000     0.00482597    -0.01336791     1.57534523
    5 O                    8.0000    -1.31526221    -0.75473398    -0.57191515

         Total DFT energy =     -641.824553566488

                    DFT Final Alpha Molecular Orbital Analysis
                    ------------------------------------------

 Vector    1  Occ=1.000000D+00  E=-7.649971D+01

 Vector  200  Occ=0.000000D+00  E= 5.011412D+00

 Vector  201  Occ=0.000000D+00  E= 5.011483D+00

 Vector  202  Occ=0.000000D+00  E= 5.024486D+00

 Vector  203  Occ=0.000000D+00  E= 5.340921D+00

 Vector  204  Occ=0.000000D+00  E= 5.478664D+00

 Vector  205  Occ=0.000000D+00  E= 5.478906D+00

 Vector  206  Occ=0.000000D+00  E= 5.481159D+00

 Vector  207  Occ=0.000000D+00  E= 5.931119D+00

 Vector  208  Occ=0.000000D+00  E= 5.951045D+00

 Vector  209  Occ=0.000000D+00  E= 5.951393D+00

 Vector  210  Occ=0.000000D+00  E= 5.962679D+00

 Vector  211  Occ=0.000000D+00  E= 5.962831D+00

 Vector  212  Occ=0.000000D+00  E= 5.967214D+00

 Vector  213  Occ=0.000000D+00  E= 5.980547D+00

 Vector  214  Occ=0.000000D+00  E= 5.980847D+00

 Vector  215  Occ=0.000000D+00  E= 5.982056D+00

 Vector  216  Occ=0.000000D+00  E= 5.991418D+00

 Vector  217  Occ=0.000000D+00  E= 6.130544D+00

 Vector  218  Occ=0.000000D+00  E= 6.150857D+00

 Vector  219  Occ=0.000000D+00  E= 6.151020D+00

 Vector  220  Occ=0.000000D+00  E= 6.155139D+00

 Vector  221  Occ=0.000000D+00  E= 6.166847D+00

 Vector  222  Occ=0.000000D+00  E= 6.166943D+00

 Vector  223  Occ=0.000000D+00  E= 6.168647D+00

 Vector  224  Occ=0.000000D+00  E= 6.202843D+00

 Vector  225  Occ=0.000000D+00  E= 6.202957D+00

 Vector  226  Occ=0.000000D+00  E= 6.268883D+00

 Vector  227  Occ=0.000000D+00  E= 6.269149D+00

 Vector  228  Occ=0.000000D+00  E= 6.273621D+00

 Vector  229  Occ=0.000000D+00  E= 6.314874D+00

 Vector  230  Occ=0.000000D+00  E= 6.317183D+00

 Vector  231  Occ=0.000000D+00  E= 6.317405D+00

 Vector  232  Occ=0.000000D+00  E= 6.328573D+00

 Vector  233  Occ=0.000000D+00  E= 6.346736D+00

 Vector  234  Occ=0.000000D+00  E= 6.347002D+00

 Vector  235  Occ=0.000000D+00  E= 6.387507D+00

 Vector  236  Occ=0.000000D+00  E= 6.387593D+00

 Vector  237  Occ=0.000000D+00  E= 6.439897D+00

 Vector  238  Occ=0.000000D+00  E= 6.451062D+00

 Vector  239  Occ=0.000000D+00  E= 6.451266D+00

 Vector  240  Occ=0.000000D+00  E= 6.477534D+00

 Vector  241  Occ=0.000000D+00  E= 6.491276D+00

 Vector  242  Occ=0.000000D+00  E= 6.491335D+00

 Vector  243  Occ=0.000000D+00  E= 6.605060D+00

 Vector  244  Occ=0.000000D+00  E= 6.620780D+00

 Vector  245  Occ=0.000000D+00  E= 6.645317D+00

 Vector  246  Occ=0.000000D+00  E= 6.645410D+00

 Vector  247  Occ=0.000000D+00  E= 6.782747D+00

 Vector  248  Occ=0.000000D+00  E= 6.783229D+00

 Vector  249  Occ=0.000000D+00  E= 6.800058D+00

 Vector  250  Occ=0.000000D+00  E= 6.974195D+00

 Vector  251  Occ=0.000000D+00  E= 6.974950D+00

 Vector  252  Occ=0.000000D+00  E= 7.058731D+00

 Vector  253  Occ=0.000000D+00  E= 7.095058D+00

 Vector  254  Occ=0.000000D+00  E= 7.095521D+00

 Vector  255  Occ=0.000000D+00  E= 7.098565D+00

 Vector  256  Occ=0.000000D+00  E= 7.909870D+00

 Vector  257  Occ=0.000000D+00  E= 7.910459D+00

 Vector  258  Occ=0.000000D+00  E= 7.910633D+00

 Vector  259  Occ=0.000000D+00  E= 1.164563D+01

 Vector  260  Occ=0.000000D+00  E= 1.187485D+01

 Vector  261  Occ=0.000000D+00  E= 1.187702D+01

 Vector  262  Occ=0.000000D+00  E= 1.188411D+01

 Vector  263  Occ=0.000000D+00  E= 1.330778D+01

 Vector  264  Occ=0.000000D+00  E= 1.332759D+01

 Vector  265  Occ=0.000000D+00  E= 1.332781D+01

 Vector  266  Occ=0.000000D+00  E= 1.335431D+01

 Vector  267  Occ=0.000000D+00  E= 1.335573D+01

 Vector  268  Occ=0.000000D+00  E= 1.366484D+01

 Vector  269  Occ=0.000000D+00  E= 1.366517D+01

 Vector  270  Occ=0.000000D+00  E= 1.367656D+01

 Vector  271  Occ=0.000000D+00  E= 1.562663D+01

 Vector  272  Occ=0.000000D+00  E= 1.562795D+01

 Vector  273  Occ=0.000000D+00  E= 1.562839D+01

 Vector  274  Occ=0.000000D+00  E= 1.635266D+01

 Vector  275  Occ=0.000000D+00  E= 1.675371D+01

 Vector  276  Occ=0.000000D+00  E= 1.675442D+01

 Vector  277  Occ=0.000000D+00  E= 1.676151D+01

 Vector  278  Occ=0.000000D+00  E= 1.712188D+01

 Vector  279  Occ=0.000000D+00  E= 1.864366D+01

     Multipole analysis of the density
     ---------------------------------

     L   x y z        total         alpha         beta         nuclear
     -   - - -        -----         -----         ----         -------
     0   0 0 0     -0.000000    -24.000000    -23.000000     47.000000

     1   1 0 0     -0.000009     -0.009547     -0.006613      0.016151
     1   0 1 0      0.065008     -0.988215      1.110701     -0.057478
     1   0 0 1     -0.022047      1.884614      1.084623     -2.991284

     2   2 0 0    -26.280652    -62.968239    -61.961144     98.648732
     2   1 1 0     -0.000063      0.012623     -0.002166     -0.010520
     2   1 0 1     -0.000185     -0.007747     -0.010611      0.018173
     2   0 2 0    -25.907175    -66.325975    -58.157383     98.576182
     2   0 1 1     -0.129574      1.272725     -1.334903     -0.067396

 Total times  cpu:      104.2s     wall:      277.8s
