 Output coordinates in angstroms (scale by  1.889725989 to convert to a.u.)

  No.       Tag          Charge          X              Y              Z
 ---- ---------------- ---------- -------------- -------------- --------------
    1 S                   16.0000    -0.00577748     0.00356329    -0.06051397
    2 O                    8.0000    -0.16964765     1.56209415    -0.01562276
    3 O                    8.0000    -1.43926407    -0.63077099    -0.01614626
    4 O                    8.0000     0.75332320    -0.43604245     1.23886098

         Total DFT energy =     -623.613293116707

                    DFT Final Alpha Molecular Orbital Analysis
                    ------------------------------------------

 Vector    1  Occ=1.000000D+00  E=-8.804538D+01

 Vector  145  Occ=0.000000D+00  E= 3.037333D+00

 Vector  146  Occ=0.000000D+00  E= 3.138088D+00

 Vector  147  Occ=0.000000D+00  E= 3.138194D+00

 Vector  148  Occ=0.000000D+00  E= 3.205308D+00

 Vector  149  Occ=0.000000D+00  E= 3.230977D+00

 Vector  150  Occ=0.000000D+00  E= 3.231158D+00

 Vector  151  Occ=0.000000D+00  E= 3.277793D+00

 Vector  152  Occ=0.000000D+00  E= 3.337726D+00

 Vector  153  Occ=0.000000D+00  E= 3.338311D+00

 Vector  154  Occ=0.000000D+00  E= 3.474623D+00

 Vector  155  Occ=0.000000D+00  E= 3.804915D+00

 Vector  156  Occ=0.000000D+00  E= 3.804963D+00

 Vector  157  Occ=0.000000D+00  E= 4.561346D+00

 Vector  158  Occ=0.000000D+00  E= 4.739252D+00

 Vector  159  Occ=0.000000D+00  E= 4.739324D+00

 Vector  160  Occ=0.000000D+00  E= 5.001378D+00

 Vector  161  Occ=0.000000D+00  E= 5.190795D+00

 Vector  162  Occ=0.000000D+00  E= 5.190824D+00

 Vector  163  Occ=0.000000D+00  E= 5.216213D+00

 Vector  164  Occ=0.000000D+00  E= 5.216493D+00

 Vector  165  Occ=0.000000D+00  E= 5.223909D+00

 Vector  166  Occ=0.000000D+00  E= 5.235525D+00

 Vector  167  Occ=0.000000D+00  E= 5.508517D+00

 Vector  168  Occ=0.000000D+00  E= 5.509603D+00

 Vector  169  Occ=0.000000D+00  E= 5.629580D+00

 Vector  170  Occ=0.000000D+00  E= 5.767811D+00

 Vector  171  Occ=0.000000D+00  E= 5.768199D+00

 Vector  172  Occ=0.000000D+00  E= 6.182154D+00

 Vector  173  Occ=0.000000D+00  E= 6.182212D+00

 Vector  174  Occ=0.000000D+00  E= 6.232174D+00

 Vector  175  Occ=0.000000D+00  E= 6.236066D+00

 Vector  176  Occ=0.000000D+00  E= 6.236096D+00

 Vector  177  Occ=0.000000D+00  E= 6.244996D+00

 Vector  178  Occ=0.000000D+00  E= 6.271133D+00

 Vector  179  Occ=0.000000D+00  E= 6.271187D+00

 Vector  180  Occ=0.000000D+00  E= 6.349474D+00

 Vector  181  Occ=0.000000D+00  E= 6.422578D+00

 Vector  182  Occ=0.000000D+00  E= 6.422717D+00

 Vector  183  Occ=0.000000D+00  E= 6.456222D+00

 Vector  184  Occ=0.000000D+00  E= 6.485041D+00

 Vector  185  Occ=0.000000D+00  E= 6.485048D+00

 Vector  186  Occ=0.000000D+00  E= 6.488323D+00

 Vector  187  Occ=0.000000D+00  E= 6.564192D+00

 Vector  188  Occ=0.000000D+00  E= 6.650529D+00

 Vector  189  Occ=0.000000D+00  E= 6.658026D+00

 Vector  190  Occ=0.000000D+00  E= 6.658038D+00

 Vector  191  Occ=0.000000D+00  E= 6.673603D+00

 Vector  192  Occ=0.000000D+00  E= 6.673631D+00

 Vector  193  Occ=0.000000D+00  E= 6.701981D+00

 Vector  194  Occ=0.000000D+00  E= 6.702237D+00

 Vector  195  Occ=0.000000D+00  E= 6.716269D+00

 Vector  196  Occ=0.000000D+00  E= 6.728209D+00

 Vector  197  Occ=0.000000D+00  E= 6.728290D+00

 Vector  198  Occ=0.000000D+00  E= 6.771046D+00

 Vector  199  Occ=0.000000D+00  E= 6.841354D+00

 Vector  200  Occ=0.000000D+00  E= 6.925779D+00

 Vector  201  Occ=0.000000D+00  E= 6.954340D+00

 Vector  202  Occ=0.000000D+00  E= 6.954396D+00

 Vector  203  Occ=0.000000D+00  E= 7.029535D+00

 Vector  204  Occ=0.000000D+00  E= 7.361164D+00

 Vector  205  Occ=0.000000D+00  E= 7.361515D+00

 Vector  206  Occ=0.000000D+00  E= 7.588805D+00

 Vector  207  Occ=0.000000D+00  E= 7.793404D+00

 Vector  208  Occ=0.000000D+00  E= 7.793732D+00

 Vector  209  Occ=0.000000D+00  E= 1.093881D+01

 Vector  210  Occ=0.000000D+00  E= 1.212086D+01

 Vector  211  Occ=0.000000D+00  E= 1.212108D+01

 Vector  212  Occ=0.000000D+00  E= 1.340142D+01

 Vector  213  Occ=0.000000D+00  E= 1.340154D+01

 Vector  214  Occ=0.000000D+00  E= 1.344221D+01

 Vector  215  Occ=0.000000D+00  E= 1.344677D+01

 Vector  216  Occ=0.000000D+00  E= 1.382852D+01

 Vector  217  Occ=0.000000D+00  E= 1.382890D+01

 Vector  218  Occ=0.000000D+00  E= 1.471706D+01

 Vector  219  Occ=0.000000D+00  E= 1.551399D+01

 Vector  220  Occ=0.000000D+00  E= 1.577460D+01

 Vector  221  Occ=0.000000D+00  E= 1.577543D+01

 Vector  222  Occ=0.000000D+00  E= 1.698462D+01

 Vector  223  Occ=0.000000D+00  E= 1.698465D+01

 Vector  224  Occ=0.000000D+00  E= 1.709667D+01

     Multipole analysis of the density
     ---------------------------------

     L   x y z        total         alpha         beta         nuclear
     -   - - -        -----         -----         ----         -------
     0   0 0 0     -1.000000    -21.000000    -20.000000     40.000000

     1   1 0 0      0.624993      6.990392      6.743909    -13.109309
     1   0 1 0     -0.361122     -4.049162     -3.907256      7.595297
     1   0 0 1     -0.901944     -8.797546     -8.523306     16.418907

     2   2 0 0    -28.562217    -53.995106    -50.782880     76.215768
     2   1 1 0     -0.789570     -4.873488     -4.895690      8.979608
     2   1 0 1     -2.341472    -14.863463    -14.899527     27.421519
     2   0 2 0    -29.467668    -59.579781    -56.398165     86.510278
     2   0 1 1      1.353402      8.591840      8.612713    -15.851151

 Total times  cpu:       25.3s     wall:       26.8s
