         Total DFT energy =     -264.299957536355
@ Step       Energy      Delta E   Gmax     Grms     Xrms     Xmax   Walltime
@ ---- ---------------- -------- -------- -------- -------- -------- --------
@    0    -264.29995754  0.0D+00  0.06705  0.02520  0.00000  0.00000     30.1
         Total DFT energy =     -264.306225484438
         Total DFT energy =     -264.306658657095
@    1    -264.30665866 -6.7D-03  0.01584  0.00579  0.04708  0.10722     65.6
         Total DFT energy =     -264.296231710138
         Total DFT energy =     -264.306984383184
@    2    -264.30698438 -3.3D-04  0.01235  0.00473  0.01269  0.03569    109.9
         Total DFT energy =     -264.305993139890
         Total DFT energy =     -264.307514696987
@    3    -264.30751470 -5.3D-04  0.00557  0.00265  0.01947  0.04417    148.7
         Total DFT energy =     -264.307626673043
         Total DFT energy =     -264.307631715284
@    4    -264.30763172 -1.2D-04  0.00276  0.00145  0.00832  0.01930    172.4
         Total DFT energy =     -264.307646946310
         Total DFT energy =     -264.307654595205
@    5    -264.30765460 -2.3D-05  0.00075  0.00043  0.00306  0.00689    195.3
         Total DFT energy =     -264.307658048542
         Total DFT energy =   -264.307658048542
@    6    -264.30765805 -3.5D-06  0.00039  0.00018  0.00156  0.00299    205.9
         Total DFT energy =     -264.307658912781
         Total DFT energy =   -264.307658912781
@    7    -264.30765891 -8.6D-07  0.00015  0.00009  0.00092  0.00211    215.5
         Total DFT energy =     -264.307659027793
         Total DFT energy =   -264.307659027793
@    8    -264.30765903 -1.2D-07  0.00007  0.00004  0.00117  0.00255    225.0
         Total DFT energy =     -264.307659718707

                       DFT Final Molecular Orbital Analysis
                       ------------------------------------

 Vector    1  Occ=2.000000D+00  E=-1.856823D+01

 Vector  166  Occ=0.000000D+00  E= 4.270795D+00

 Vector  167  Occ=0.000000D+00  E= 4.361258D+00

 Vector  168  Occ=0.000000D+00  E= 4.372129D+00

 Vector  169  Occ=0.000000D+00  E= 4.438679D+00

 Vector  170  Occ=0.000000D+00  E= 4.509026D+00

 Vector  171  Occ=0.000000D+00  E= 4.581805D+00

 Vector  172  Occ=0.000000D+00  E= 4.741026D+00

 Vector  173  Occ=0.000000D+00  E= 4.797579D+00

 Vector  174  Occ=0.000000D+00  E= 4.842328D+00

 Vector  175  Occ=0.000000D+00  E= 5.056633D+00

 Vector  176  Occ=0.000000D+00  E= 5.189157D+00

 Vector  177  Occ=0.000000D+00  E= 5.285437D+00

 Vector  178  Occ=0.000000D+00  E= 5.329338D+00

 Vector  179  Occ=0.000000D+00  E= 5.362589D+00

 Vector  180  Occ=0.000000D+00  E= 5.366192D+00

 Vector  181  Occ=0.000000D+00  E= 5.446002D+00

 Vector  182  Occ=0.000000D+00  E= 5.510470D+00

 Vector  183  Occ=0.000000D+00  E= 5.651062D+00

 Vector  184  Occ=0.000000D+00  E= 5.715349D+00

 Vector  185  Occ=0.000000D+00  E= 5.975606D+00

 Vector  186  Occ=0.000000D+00  E= 6.159436D+00

 Vector  187  Occ=0.000000D+00  E= 6.258753D+00

 Vector  188  Occ=0.000000D+00  E= 6.296444D+00

 Vector  189  Occ=0.000000D+00  E= 6.317046D+00

 Vector  190  Occ=0.000000D+00  E= 6.332925D+00

 Vector  191  Occ=0.000000D+00  E= 6.387151D+00

 Vector  192  Occ=0.000000D+00  E= 6.420873D+00

 Vector  193  Occ=0.000000D+00  E= 6.426929D+00

 Vector  194  Occ=0.000000D+00  E= 6.477953D+00

 Vector  195  Occ=0.000000D+00  E= 6.533183D+00

 Vector  196  Occ=0.000000D+00  E= 6.585612D+00

 Vector  197  Occ=0.000000D+00  E= 6.589374D+00

 Vector  198  Occ=0.000000D+00  E= 6.617538D+00

 Vector  199  Occ=0.000000D+00  E= 6.634272D+00

 Vector  200  Occ=0.000000D+00  E= 6.683227D+00

 Vector  201  Occ=0.000000D+00  E= 6.722873D+00

 Vector  202  Occ=0.000000D+00  E= 6.748384D+00

 Vector  203  Occ=0.000000D+00  E= 6.781669D+00

 Vector  204  Occ=0.000000D+00  E= 6.825806D+00

 Vector  205  Occ=0.000000D+00  E= 6.847696D+00

 Vector  206  Occ=0.000000D+00  E= 6.894343D+00

 Vector  207  Occ=0.000000D+00  E= 6.899966D+00

 Vector  208  Occ=0.000000D+00  E= 6.972800D+00

 Vector  209  Occ=0.000000D+00  E= 6.975585D+00

 Vector  210  Occ=0.000000D+00  E= 7.018614D+00

 Vector  211  Occ=0.000000D+00  E= 7.051194D+00

 Vector  212  Occ=0.000000D+00  E= 7.152283D+00

 Vector  213  Occ=0.000000D+00  E= 7.254390D+00

 Vector  214  Occ=0.000000D+00  E= 7.311430D+00

 Vector  215  Occ=0.000000D+00  E= 7.373998D+00

 Vector  216  Occ=0.000000D+00  E= 7.419612D+00

 Vector  217  Occ=0.000000D+00  E= 7.476434D+00

 Vector  218  Occ=0.000000D+00  E= 7.495177D+00

 Vector  219  Occ=0.000000D+00  E= 7.628608D+00

 Vector  220  Occ=0.000000D+00  E= 7.749468D+00

 Vector  221  Occ=0.000000D+00  E= 7.760968D+00

 Vector  222  Occ=0.000000D+00  E= 7.838616D+00

 Vector  223  Occ=0.000000D+00  E= 7.972104D+00

 Vector  224  Occ=0.000000D+00  E= 8.160209D+00

 Vector  225  Occ=0.000000D+00  E= 8.221274D+00

 Vector  226  Occ=0.000000D+00  E= 8.645194D+00

 Vector  227  Occ=0.000000D+00  E= 8.896341D+00

 Vector  228  Occ=0.000000D+00  E= 9.387734D+00

 Vector  229  Occ=0.000000D+00  E= 1.025622D+01

 Vector  230  Occ=0.000000D+00  E= 1.308666D+01

 Vector  231  Occ=0.000000D+00  E= 1.342909D+01

 Vector  232  Occ=0.000000D+00  E= 1.365860D+01

 Vector  233  Occ=0.000000D+00  E= 1.392973D+01

 Vector  234  Occ=0.000000D+00  E= 1.400961D+01

 Vector  235  Occ=0.000000D+00  E= 1.458128D+01

 Vector  236  Occ=0.000000D+00  E= 1.498131D+01

 Vector  237  Occ=0.000000D+00  E= 1.537875D+01

 Vector  238  Occ=0.000000D+00  E= 1.585223D+01

 Vector  239  Occ=0.000000D+00  E= 1.626184D+01

 Vector  240  Occ=0.000000D+00  E= 1.653845D+01

 Vector  241  Occ=0.000000D+00  E= 1.684378D+01

 Vector  242  Occ=0.000000D+00  E= 1.712900D+01

 Vector  243  Occ=0.000000D+00  E= 1.758083D+01

 Vector  244  Occ=0.000000D+00  E= 1.820700D+01

 Vector  245  Occ=0.000000D+00  E= 2.684265D+01

     Multipole analysis of the density
     ---------------------------------

     L   x y z        total         alpha         beta         nuclear
     -   - - -        -----         -----         ----         -------
     0   0 0 0     -1.000000    -16.000000    -16.000000     31.000000

     1   1 0 0      0.177864      0.047360      0.047360      0.083145
     1   0 1 0      0.390640     -0.262631     -0.262631      0.915902
     1   0 0 1      0.562713     -3.737768     -3.737768      8.038249

     2   2 0 0    -20.032734    -19.323577    -19.323577     18.614420
     2   1 1 0     -2.607862    -17.806567    -17.806567     33.005273
     2   1 0 1      1.087111      1.477588      1.477588     -1.868065
     2   0 2 0    -22.981073    -41.338912    -41.338912     59.696751
     2   0 1 1      1.477040     -2.575243     -2.575243      6.627526

         Total DFT energy =   -264.307659718707
@    9    -264.30765972 -6.9D-07  0.00024  0.00008  0.00033  0.00073    233.0
@    9    -264.30765972 -6.9D-07  0.00024  0.00008  0.00033  0.00073    233.0

 Output coordinates in angstroms (scale by  1.889725989 to convert to a.u.)

  No.       Tag          Charge          X              Y              Z
 ---- ---------------- ---------- -------------- -------------- --------------
    1 C                    6.0000    -0.00487398    -0.01628148    -0.03694303
    2 O                    8.0000    -0.09975895    -0.01189477     1.42769314
    3 O                    8.0000     0.59085117     0.99198238    -0.50139033
    4 O                    8.0000    -0.52616375    -1.01020159    -0.57155799
    5 H                    1.0000     0.35381452     0.82327546     1.63735822

 Total times  cpu:      228.2s     wall:      233.0s
