 Output coordinates in angstroms (scale by  1.889725989 to convert to a.u.)

  No.       Tag          Charge          X              Y              Z
 ---- ---------------- ---------- -------------- -------------- --------------
    1 C                    6.0000     0.00130722     0.00235869    -0.04882882
    2 C                    6.0000    -0.04852352     0.02203404     1.51773523
    3 O                    8.0000     0.58172128     0.98117128    -0.59954603
    4 O                    8.0000    -0.54079798    -1.00616352    -0.58570192
    5 H                    1.0000     0.31095568     0.97819423     1.92599588
    6 H                    1.0000    -1.07596282    -0.17134952     1.86516931
    7 H                    1.0000     0.58137513    -0.79376319     1.90932234

         Total DFT energy =     -228.246952663230

                    DFT Final Alpha Molecular Orbital Analysis
                    ------------------------------------------

 Vector    1  Occ=1.000000D+00  E=-1.880276D+01

 Vector  216  Occ=0.000000D+00  E= 4.163769D+00

 Vector  217  Occ=0.000000D+00  E= 4.216653D+00

 Vector  218  Occ=0.000000D+00  E= 4.241974D+00

 Vector  219  Occ=0.000000D+00  E= 4.359338D+00

 Vector  220  Occ=0.000000D+00  E= 4.372479D+00

 Vector  221  Occ=0.000000D+00  E= 4.398431D+00

 Vector  222  Occ=0.000000D+00  E= 4.439084D+00

 Vector  223  Occ=0.000000D+00  E= 4.456856D+00

 Vector  224  Occ=0.000000D+00  E= 4.482009D+00

 Vector  225  Occ=0.000000D+00  E= 4.648782D+00

 Vector  226  Occ=0.000000D+00  E= 4.658057D+00

 Vector  227  Occ=0.000000D+00  E= 4.689390D+00

 Vector  228  Occ=0.000000D+00  E= 4.813165D+00

 Vector  229  Occ=0.000000D+00  E= 4.859213D+00

 Vector  230  Occ=0.000000D+00  E= 4.922514D+00

 Vector  231  Occ=0.000000D+00  E= 5.060788D+00

 Vector  232  Occ=0.000000D+00  E= 5.086540D+00

 Vector  233  Occ=0.000000D+00  E= 5.106790D+00

 Vector  234  Occ=0.000000D+00  E= 5.125154D+00

 Vector  235  Occ=0.000000D+00  E= 5.144982D+00

 Vector  236  Occ=0.000000D+00  E= 5.174117D+00

 Vector  237  Occ=0.000000D+00  E= 5.225044D+00

 Vector  238  Occ=0.000000D+00  E= 5.293820D+00

 Vector  239  Occ=0.000000D+00  E= 5.359662D+00

 Vector  240  Occ=0.000000D+00  E= 5.412793D+00

 Vector  241  Occ=0.000000D+00  E= 5.460941D+00

 Vector  242  Occ=0.000000D+00  E= 5.496307D+00

 Vector  243  Occ=0.000000D+00  E= 5.628976D+00

 Vector  244  Occ=0.000000D+00  E= 5.667586D+00

 Vector  245  Occ=0.000000D+00  E= 6.023068D+00

 Vector  246  Occ=0.000000D+00  E= 6.061908D+00

 Vector  247  Occ=0.000000D+00  E= 6.089226D+00

 Vector  248  Occ=0.000000D+00  E= 6.117858D+00

 Vector  249  Occ=0.000000D+00  E= 6.219862D+00

 Vector  250  Occ=0.000000D+00  E= 6.268398D+00

 Vector  251  Occ=0.000000D+00  E= 6.309723D+00

 Vector  252  Occ=0.000000D+00  E= 6.323460D+00

 Vector  253  Occ=0.000000D+00  E= 6.403736D+00

 Vector  254  Occ=0.000000D+00  E= 6.416610D+00

 Vector  255  Occ=0.000000D+00  E= 6.428635D+00

 Vector  256  Occ=0.000000D+00  E= 6.480353D+00

 Vector  257  Occ=0.000000D+00  E= 6.535261D+00

 Vector  258  Occ=0.000000D+00  E= 6.557553D+00

 Vector  259  Occ=0.000000D+00  E= 6.575936D+00

 Vector  260  Occ=0.000000D+00  E= 6.635856D+00

 Vector  261  Occ=0.000000D+00  E= 6.656075D+00

 Vector  262  Occ=0.000000D+00  E= 6.806800D+00

 Vector  263  Occ=0.000000D+00  E= 6.898126D+00

 Vector  264  Occ=0.000000D+00  E= 6.952033D+00

 Vector  265  Occ=0.000000D+00  E= 6.987899D+00

 Vector  266  Occ=0.000000D+00  E= 7.090134D+00

 Vector  267  Occ=0.000000D+00  E= 7.098846D+00

 Vector  268  Occ=0.000000D+00  E= 7.137459D+00

 Vector  269  Occ=0.000000D+00  E= 7.212584D+00

 Vector  270  Occ=0.000000D+00  E= 7.239456D+00

 Vector  271  Occ=0.000000D+00  E= 7.334779D+00

 Vector  272  Occ=0.000000D+00  E= 7.480583D+00

 Vector  273  Occ=0.000000D+00  E= 7.542853D+00

 Vector  274  Occ=0.000000D+00  E= 7.678452D+00

 Vector  275  Occ=0.000000D+00  E= 7.885430D+00

 Vector  276  Occ=0.000000D+00  E= 7.923440D+00

 Vector  277  Occ=0.000000D+00  E= 8.356584D+00

 Vector  278  Occ=0.000000D+00  E= 8.388336D+00

 Vector  279  Occ=0.000000D+00  E= 9.606544D+00

 Vector  280  Occ=0.000000D+00  E= 9.767084D+00

 Vector  281  Occ=0.000000D+00  E= 9.918283D+00

 Vector  282  Occ=0.000000D+00  E= 9.937641D+00

 Vector  283  Occ=0.000000D+00  E= 1.004211D+01

 Vector  284  Occ=0.000000D+00  E= 1.294548D+01

 Vector  285  Occ=0.000000D+00  E= 1.355031D+01

 Vector  286  Occ=0.000000D+00  E= 1.401705D+01

 Vector  287  Occ=0.000000D+00  E= 1.423508D+01

 Vector  288  Occ=0.000000D+00  E= 1.482304D+01

 Vector  289  Occ=0.000000D+00  E= 1.509323D+01

 Vector  290  Occ=0.000000D+00  E= 1.652014D+01

 Vector  291  Occ=0.000000D+00  E= 1.662813D+01

 Vector  292  Occ=0.000000D+00  E= 1.812377D+01

 Vector  293  Occ=0.000000D+00  E= 1.886244D+01

 Vector  294  Occ=0.000000D+00  E= 2.732617D+01

 Vector  295  Occ=0.000000D+00  E= 3.079017D+01

     Multipole analysis of the density
     ---------------------------------

     L   x y z        total         alpha         beta         nuclear
     -   - - -        -----         -----         ----         -------
     0   0 0 0     -0.000000    -16.000000    -15.000000     31.000000

     1   1 0 0     -0.034892      0.102716      0.126090     -0.263699
     1   0 1 0      0.008426      0.043543      0.041417     -0.076534
     1   0 0 1      1.182889     -3.917528     -4.408575      9.508992

     2   2 0 0    -17.526892    -21.247614    -20.039071     23.759793
     2   1 1 0     -1.536001    -17.493336    -15.967499     31.924834
     2   1 0 1     -0.057112      1.821090      1.679854     -3.558056
     2   0 2 0    -19.386111    -42.320989    -39.272091     62.206968
     2   0 1 1     -0.058521     -0.502900     -0.474273      0.918652

 Total times  cpu:      187.3s     wall:      189.8s
