         Total DFT energy =     -205.049164431951
@ Step       Energy      Delta E   Gmax     Grms     Xrms     Xmax   Walltime
@ ---- ---------------- -------- -------- -------- -------- -------- --------
@    0    -205.04916443  0.0D+00  0.04694  0.01948  0.00000  0.00000     11.0
         Total DFT energy =     -205.044024956257
         Total DFT energy =     -205.052190895056
@    1    -205.05219090 -3.0D-03  0.00407  0.00206  0.03807  0.08218     24.5
         Total DFT energy =     -205.052213000196
         Total DFT energy =     -205.052214325912
@    2    -205.05221433 -2.3D-05  0.00031  0.00014  0.00258  0.00475     30.5
         Total DFT energy =     -205.052214596297

                       DFT Final Molecular Orbital Analysis
                       ------------------------------------

 Vector    1  Occ=2.000000D+00  E=-1.852905D+01

 Vector   86  Occ=0.000000D+00  E= 2.508409D+00

 Vector   87  Occ=0.000000D+00  E= 2.527717D+00

 Vector   88  Occ=0.000000D+00  E= 2.535191D+00

 Vector   89  Occ=0.000000D+00  E= 2.603837D+00

 Vector   90  Occ=0.000000D+00  E= 2.621592D+00

 Vector   91  Occ=0.000000D+00  E= 2.702392D+00

 Vector   92  Occ=0.000000D+00  E= 2.702431D+00

 Vector   93  Occ=0.000000D+00  E= 2.815814D+00

 Vector   94  Occ=0.000000D+00  E= 2.858791D+00

 Vector   95  Occ=0.000000D+00  E= 2.866212D+00

 Vector   96  Occ=0.000000D+00  E= 3.020198D+00

 Vector   97  Occ=0.000000D+00  E= 3.034546D+00

 Vector   98  Occ=0.000000D+00  E= 3.150590D+00

 Vector   99  Occ=0.000000D+00  E= 3.220701D+00

 Vector  100  Occ=0.000000D+00  E= 3.249769D+00

 Vector  101  Occ=0.000000D+00  E= 3.375530D+00

 Vector  102  Occ=0.000000D+00  E= 3.452466D+00

 Vector  103  Occ=0.000000D+00  E= 3.886784D+00

 Vector  104  Occ=0.000000D+00  E= 4.030870D+00

 Vector  105  Occ=0.000000D+00  E= 4.459592D+00

 Vector  106  Occ=0.000000D+00  E= 4.575581D+00

 Vector  107  Occ=0.000000D+00  E= 4.674337D+00

 Vector  108  Occ=0.000000D+00  E= 4.676458D+00

 Vector  109  Occ=0.000000D+00  E= 4.718782D+00

 Vector  110  Occ=0.000000D+00  E= 4.774513D+00

 Vector  111  Occ=0.000000D+00  E= 4.810961D+00

 Vector  112  Occ=0.000000D+00  E= 4.815284D+00

 Vector  113  Occ=0.000000D+00  E= 4.984436D+00

 Vector  114  Occ=0.000000D+00  E= 5.022401D+00

 Vector  115  Occ=0.000000D+00  E= 5.073785D+00

 Vector  116  Occ=0.000000D+00  E= 5.122476D+00

 Vector  117  Occ=0.000000D+00  E= 5.273427D+00

 Vector  118  Occ=0.000000D+00  E= 5.320412D+00

 Vector  119  Occ=0.000000D+00  E= 5.330098D+00

 Vector  120  Occ=0.000000D+00  E= 5.416279D+00

 Vector  121  Occ=0.000000D+00  E= 5.434811D+00

 Vector  122  Occ=0.000000D+00  E= 5.462397D+00

 Vector  123  Occ=0.000000D+00  E= 5.645366D+00

 Vector  124  Occ=0.000000D+00  E= 5.866130D+00

 Vector  125  Occ=0.000000D+00  E= 6.193520D+00

 Vector  126  Occ=0.000000D+00  E= 6.217056D+00

 Vector  127  Occ=0.000000D+00  E= 6.250031D+00

 Vector  128  Occ=0.000000D+00  E= 6.277304D+00

 Vector  129  Occ=0.000000D+00  E= 6.293871D+00

 Vector  130  Occ=0.000000D+00  E= 6.337694D+00

 Vector  131  Occ=0.000000D+00  E= 6.387647D+00

 Vector  132  Occ=0.000000D+00  E= 6.415513D+00

 Vector  133  Occ=0.000000D+00  E= 6.458931D+00

 Vector  134  Occ=0.000000D+00  E= 6.495270D+00

 Vector  135  Occ=0.000000D+00  E= 6.659195D+00

 Vector  136  Occ=0.000000D+00  E= 6.700518D+00

 Vector  137  Occ=0.000000D+00  E= 6.774886D+00

 Vector  138  Occ=0.000000D+00  E= 6.793194D+00

 Vector  139  Occ=0.000000D+00  E= 6.807134D+00

 Vector  140  Occ=0.000000D+00  E= 6.878443D+00

 Vector  141  Occ=0.000000D+00  E= 6.925789D+00

 Vector  142  Occ=0.000000D+00  E= 7.181389D+00

 Vector  143  Occ=0.000000D+00  E= 7.246797D+00

 Vector  144  Occ=0.000000D+00  E= 7.280317D+00

 Vector  145  Occ=0.000000D+00  E= 7.293803D+00

 Vector  146  Occ=0.000000D+00  E= 7.470558D+00

 Vector  147  Occ=0.000000D+00  E= 7.563955D+00

 Vector  148  Occ=0.000000D+00  E= 7.604789D+00

 Vector  149  Occ=0.000000D+00  E= 7.778293D+00

 Vector  150  Occ=0.000000D+00  E= 8.391207D+00

 Vector  151  Occ=0.000000D+00  E= 9.816846D+00

 Vector  152  Occ=0.000000D+00  E= 1.079921D+01

 Vector  153  Occ=0.000000D+00  E= 1.202838D+01

 Vector  154  Occ=0.000000D+00  E= 1.210253D+01

 Vector  155  Occ=0.000000D+00  E= 1.255088D+01

 Vector  156  Occ=0.000000D+00  E= 1.290869D+01

 Vector  157  Occ=0.000000D+00  E= 1.346578D+01

 Vector  158  Occ=0.000000D+00  E= 1.350098D+01

 Vector  159  Occ=0.000000D+00  E= 1.370178D+01

 Vector  160  Occ=0.000000D+00  E= 1.417132D+01

 Vector  161  Occ=0.000000D+00  E= 1.588055D+01

 Vector  162  Occ=0.000000D+00  E= 1.671003D+01

 Vector  163  Occ=0.000000D+00  E= 1.714752D+01

 Vector  164  Occ=0.000000D+00  E= 1.733547D+01

 Vector  165  Occ=0.000000D+00  E= 1.986903D+01

     Multipole analysis of the density
     ---------------------------------

     L   x y z        total         alpha         beta         nuclear
     -   - - -        -----         -----         ----         -------
     0   0 0 0     -1.000000    -12.000000    -12.000000     23.000000

     1   1 0 0     -0.009699     -0.091823     -0.091823      0.173946
     1   0 1 0      0.010626      0.121980      0.121980     -0.233334
     1   0 0 1      0.932218      9.549566      9.549566    -18.166914

     2   2 0 0    -15.382425    -15.949817    -15.949817     16.517208
     2   1 1 0     -2.481721    -15.628391    -15.628391     28.775060
     2   1 0 1      0.037579      0.082600      0.082600     -0.127621
     2   0 2 0    -18.282635    -34.215812    -34.215812     50.148989
     2   0 1 1     -0.039231     -0.233641     -0.233641      0.428051

         Total DFT energy =   -205.052214596297
@    3    -205.05221460 -2.7D-07  0.00003  0.00002  0.00028  0.00056     33.9
@    3    -205.05221460 -2.7D-07  0.00003  0.00002  0.00028  0.00056     33.9

 Output coordinates in angstroms (scale by  1.889725989 to convert to a.u.)

  No.       Tag          Charge          X              Y              Z
 ---- ---------------- ---------- -------------- -------------- --------------
    1 N                    7.0000    -0.00273617    -0.00346072     0.04425357
    2 O                    8.0000     0.54456431     0.93062828    -0.61624410
    3 O                    8.0000    -0.53066413    -0.94303456    -0.62416747

 Total times  cpu:       31.8s     wall:       34.0s
