         Total DFT energy =     -263.525318056582
@ Step       Energy      Delta E   Gmax     Grms     Xrms     Xmax   Walltime
@ ---- ---------------- -------- -------- -------- -------- -------- --------
@    0    -263.52531806  0.0D+00  0.07400  0.02556  0.00000  0.00000     26.1
         Total DFT energy =     -263.529770011298
         Total DFT energy =     -263.530130454750
@    1    -263.53013045 -4.8D-03  0.02666  0.00940  0.05301  0.11719     52.6
         Total DFT energy =     -263.529401923834
         Total DFT energy =     -263.530539832214
@    2    -263.53053983 -4.1D-04  0.01517  0.00578  0.01374  0.03008     79.6
         Total DFT energy =     -263.529320083342
         Total DFT energy =     -263.530843732937
@    3    -263.53084373 -3.0D-04  0.00262  0.00153  0.01202  0.02229    108.5
         Total DFT energy =     -263.530873459717
         Total DFT energy =     -263.530874832792
@    4    -263.53087483 -3.1D-05  0.00019  0.00007  0.00403  0.00741    121.5
         Total DFT energy =     -263.530874909062

                       DFT Final Molecular Orbital Analysis
                       ------------------------------------

 Vector    1  Occ=2.000000D+00  E=-1.828704D+01

 Vector  141  Occ=0.000000D+00  E= 3.914475D+00

 Vector  142  Occ=0.000000D+00  E= 3.914498D+00

 Vector  143  Occ=0.000000D+00  E= 4.162586D+00

 Vector  144  Occ=0.000000D+00  E= 4.352620D+00

 Vector  145  Occ=0.000000D+00  E= 4.358343D+00

 Vector  146  Occ=0.000000D+00  E= 4.358343D+00

 Vector  147  Occ=0.000000D+00  E= 4.358400D+00

 Vector  148  Occ=0.000000D+00  E= 4.358432D+00

 Vector  149  Occ=0.000000D+00  E= 4.446069D+00

 Vector  150  Occ=0.000000D+00  E= 4.635561D+00

 Vector  151  Occ=0.000000D+00  E= 4.635598D+00

 Vector  152  Occ=0.000000D+00  E= 4.800861D+00

 Vector  153  Occ=0.000000D+00  E= 5.248479D+00

 Vector  154  Occ=0.000000D+00  E= 5.468582D+00

 Vector  155  Occ=0.000000D+00  E= 5.483062D+00

 Vector  156  Occ=0.000000D+00  E= 5.483071D+00

 Vector  157  Occ=0.000000D+00  E= 5.497681D+00

 Vector  158  Occ=0.000000D+00  E= 5.497686D+00

 Vector  159  Occ=0.000000D+00  E= 5.590332D+00

 Vector  160  Occ=0.000000D+00  E= 5.590348D+00

 Vector  161  Occ=0.000000D+00  E= 5.736819D+00

 Vector  162  Occ=0.000000D+00  E= 6.155798D+00

 Vector  163  Occ=0.000000D+00  E= 6.470115D+00

 Vector  164  Occ=0.000000D+00  E= 6.470138D+00

 Vector  165  Occ=0.000000D+00  E= 6.477032D+00

 Vector  166  Occ=0.000000D+00  E= 6.484186D+00

 Vector  167  Occ=0.000000D+00  E= 6.484196D+00

 Vector  168  Occ=0.000000D+00  E= 6.534466D+00

 Vector  169  Occ=0.000000D+00  E= 6.552691D+00

 Vector  170  Occ=0.000000D+00  E= 6.552701D+00

 Vector  171  Occ=0.000000D+00  E= 6.644145D+00

 Vector  172  Occ=0.000000D+00  E= 6.717626D+00

 Vector  173  Occ=0.000000D+00  E= 6.717627D+00

 Vector  174  Occ=0.000000D+00  E= 6.733635D+00

 Vector  175  Occ=0.000000D+00  E= 6.809470D+00

 Vector  176  Occ=0.000000D+00  E= 6.809473D+00

 Vector  177  Occ=0.000000D+00  E= 6.867851D+00

 Vector  178  Occ=0.000000D+00  E= 6.882195D+00

 Vector  179  Occ=0.000000D+00  E= 6.882202D+00

 Vector  180  Occ=0.000000D+00  E= 6.906534D+00

 Vector  181  Occ=0.000000D+00  E= 6.957684D+00

 Vector  182  Occ=0.000000D+00  E= 6.957686D+00

 Vector  183  Occ=0.000000D+00  E= 7.043372D+00

 Vector  184  Occ=0.000000D+00  E= 7.043374D+00

 Vector  185  Occ=0.000000D+00  E= 7.108271D+00

 Vector  186  Occ=0.000000D+00  E= 7.108277D+00

 Vector  187  Occ=0.000000D+00  E= 7.140273D+00

 Vector  188  Occ=0.000000D+00  E= 7.304687D+00

 Vector  189  Occ=0.000000D+00  E= 7.449522D+00

 Vector  190  Occ=0.000000D+00  E= 7.449546D+00

 Vector  191  Occ=0.000000D+00  E= 7.472815D+00

 Vector  192  Occ=0.000000D+00  E= 7.472835D+00

 Vector  193  Occ=0.000000D+00  E= 7.522084D+00

 Vector  194  Occ=0.000000D+00  E= 7.616230D+00

 Vector  195  Occ=0.000000D+00  E= 7.823459D+00

 Vector  196  Occ=0.000000D+00  E= 7.937353D+00

 Vector  197  Occ=0.000000D+00  E= 7.937360D+00

 Vector  198  Occ=0.000000D+00  E= 7.991692D+00

 Vector  199  Occ=0.000000D+00  E= 8.071119D+00

 Vector  200  Occ=0.000000D+00  E= 8.240151D+00

 Vector  201  Occ=0.000000D+00  E= 8.240165D+00

 Vector  202  Occ=0.000000D+00  E= 8.872249D+00

 Vector  203  Occ=0.000000D+00  E= 9.876714D+00

 Vector  204  Occ=0.000000D+00  E= 9.876817D+00

 Vector  205  Occ=0.000000D+00  E= 1.244202D+01

 Vector  206  Occ=0.000000D+00  E= 1.244205D+01

 Vector  207  Occ=0.000000D+00  E= 1.376249D+01

 Vector  208  Occ=0.000000D+00  E= 1.376254D+01

 Vector  209  Occ=0.000000D+00  E= 1.377287D+01

 Vector  210  Occ=0.000000D+00  E= 1.395478D+01

 Vector  211  Occ=0.000000D+00  E= 1.405229D+01

 Vector  212  Occ=0.000000D+00  E= 1.464284D+01

 Vector  213  Occ=0.000000D+00  E= 1.464287D+01

 Vector  214  Occ=0.000000D+00  E= 1.620931D+01

 Vector  215  Occ=0.000000D+00  E= 1.656443D+01

 Vector  216  Occ=0.000000D+00  E= 1.656453D+01

 Vector  217  Occ=0.000000D+00  E= 1.729884D+01

 Vector  218  Occ=0.000000D+00  E= 1.744313D+01

 Vector  219  Occ=0.000000D+00  E= 1.744315D+01

 Vector  220  Occ=0.000000D+00  E= 2.465474D+01

     Multipole analysis of the density
     ---------------------------------

     L   x y z        total         alpha         beta         nuclear
     -   - - -        -----         -----         ----         -------
     0   0 0 0     -2.000000    -16.000000    -16.000000     30.000000

     1   1 0 0     -0.005660     -0.044881     -0.044881      0.084102
     1   0 1 0      0.002037      0.016729      0.016729     -0.031421
     1   0 0 1      0.008479      0.067505      0.067505     -0.126531

     2   2 0 0    -24.544136    -21.537341    -21.537341     18.530547
     2   1 1 0     -4.781366    -18.450650    -18.450650     32.119934
     2   1 0 1      0.178560      0.688881      0.688881     -1.199202
     2   0 2 0    -30.089009    -42.934259    -42.934259     55.779509
     2   0 1 1     -0.102691     -0.396868     -0.396868      0.691044

         Total DFT energy =   -263.530874909062
@    5    -263.53087491 -7.6D-08  0.00002  0.00001  0.00016  0.00037    129.1
@    5    -263.53087491 -7.6D-08  0.00002  0.00001  0.00016  0.00037    129.1

 Output coordinates in angstroms (scale by  1.889725989 to convert to a.u.)

  No.       Tag          Charge          X              Y              Z
 ---- ---------------- ---------- -------------- -------------- --------------
    1 C                    6.0000     0.00147964    -0.00056247    -0.00221744
    2 O                    8.0000    -0.02132101     0.00899898     1.31415367
    3 O                    8.0000     0.58202992     0.98268641    -0.65773541
    4 O                    8.0000    -0.55625555    -0.99334191    -0.66312482

 Total times  cpu:      125.4s     wall:      129.2s
