 Output coordinates in angstroms (scale by  1.889725989 to convert to a.u.)

  No.       Tag          Charge          X              Y              Z
 ---- ---------------- ---------- -------------- -------------- --------------
    1 H                    1.0000     0.00000000     0.00000000     0.00000000

         Total DFT energy =       -0.499811073521

                    DFT Final Alpha Molecular Orbital Analysis
                    ------------------------------------------

 Vector    1  Occ=1.000000D+00  E=-2.789650D-01

 Vector    2  Occ=0.000000D+00  E= 1.468480D-02

 Vector    3  Occ=0.000000D+00  E= 1.009268D-01

 Vector    4  Occ=0.000000D+00  E= 1.009268D-01

 Vector    5  Occ=0.000000D+00  E= 1.009268D-01

 Vector    6  Occ=0.000000D+00  E= 2.283692D-01

 Vector    7  Occ=0.000000D+00  E= 6.460674D-01

 Vector    8  Occ=0.000000D+00  E= 6.460674D-01

 Vector    9  Occ=0.000000D+00  E= 6.460674D-01

 Vector   10  Occ=0.000000D+00  E= 6.460674D-01

 Vector   11  Occ=0.000000D+00  E= 6.460674D-01

 Vector   12  Occ=0.000000D+00  E= 7.744475D-01

 Vector   13  Occ=0.000000D+00  E= 7.744475D-01

 Vector   14  Occ=0.000000D+00  E= 7.744475D-01

 Vector   15  Occ=0.000000D+00  E= 8.076499D-01

 Vector   16  Occ=0.000000D+00  E= 2.595218D+00

 Vector   17  Occ=0.000000D+00  E= 3.471133D+00

 Vector   18  Occ=0.000000D+00  E= 3.471133D+00

 Vector   19  Occ=0.000000D+00  E= 3.471133D+00

 Vector   20  Occ=0.000000D+00  E= 3.471133D+00

 Vector   21  Occ=0.000000D+00  E= 3.471133D+00

 Vector   22  Occ=0.000000D+00  E= 3.625718D+00

 Vector   23  Occ=0.000000D+00  E= 3.625718D+00

 Vector   24  Occ=0.000000D+00  E= 3.625718D+00

 Vector   25  Occ=0.000000D+00  E= 5.093637D+00

 Vector    1  Occ=0.000000D+00  E=-2.548500D-02

 Vector    2  Occ=0.000000D+00  E= 7.443023D-02

 Vector    3  Occ=0.000000D+00  E= 2.204158D-01

 Vector    4  Occ=0.000000D+00  E= 2.204158D-01

 Vector    5  Occ=0.000000D+00  E= 2.204158D-01

 Vector    6  Occ=0.000000D+00  E= 3.571773D-01

 Vector    7  Occ=0.000000D+00  E= 8.004283D-01

 Vector    8  Occ=0.000000D+00  E= 8.004283D-01

 Vector    9  Occ=0.000000D+00  E= 8.004283D-01

 Vector   10  Occ=0.000000D+00  E= 8.004283D-01

 Vector   11  Occ=0.000000D+00  E= 8.004283D-01

 Vector   12  Occ=0.000000D+00  E= 9.906392D-01

 Vector   13  Occ=0.000000D+00  E= 9.906392D-01

 Vector   14  Occ=0.000000D+00  E= 9.906392D-01

 Vector   15  Occ=0.000000D+00  E= 1.001573D+00

 Vector   16  Occ=0.000000D+00  E= 2.891239D+00

 Vector   17  Occ=0.000000D+00  E= 3.763654D+00

 Vector   18  Occ=0.000000D+00  E= 3.763654D+00

 Vector   19  Occ=0.000000D+00  E= 3.763654D+00

 Vector   20  Occ=0.000000D+00  E= 3.763654D+00

 Vector   21  Occ=0.000000D+00  E= 3.763654D+00

 Vector   22  Occ=0.000000D+00  E= 3.979174D+00

 Vector   23  Occ=0.000000D+00  E= 3.979174D+00

 Vector   24  Occ=0.000000D+00  E= 3.979174D+00

 Vector   25  Occ=0.000000D+00  E= 5.407340D+00

 Total times  cpu:        0.2s     wall:        0.4s
