         Total DFT energy =    -1147.259641948639
@ Step       Energy      Delta E   Gmax     Grms     Xrms     Xmax   Walltime
@ ---- ---------------- -------- -------- -------- -------- -------- --------
@    0   -1147.25964195  0.0D+00  0.03458  0.01018  0.00000  0.00000    188.5
         Total DFT energy =    -1147.261440890605
         Total DFT energy =    -1147.261481875916
@    1   -1147.26148188 -1.8D-03  0.00802  0.00457  0.02532  0.07387    382.5
         Total DFT energy =    -1147.262645645398
         Total DFT energy =    -1147.262709176050
@    2   -1147.26270918 -1.2D-03  0.01313  0.00487  0.03196  0.07731    558.3
         Total DFT energy =    -1147.262896573005
         Total DFT energy =    -1147.263035016372
@    3   -1147.26303502 -3.3D-04  0.00755  0.00334  0.01365  0.02842    732.7
         Total DFT energy =    -1147.262719517002
         Total DFT energy =    -1147.263382139244
@    4   -1147.26338214 -3.5D-04  0.00374  0.00140  0.01460  0.02962    905.7
         Total DFT energy =    -1147.263432128813
         Total DFT energy =    -1147.263448906970
@    5   -1147.26344891 -6.7D-05  0.00179  0.00071  0.00834  0.01956   1030.7
         Total DFT energy =    -1147.263459646532
         Total DFT energy =    -1147.263461493776
@    6   -1147.26346149 -1.3D-05  0.00090  0.00042  0.00360  0.00831   1135.9
         Total DFT energy =    -1147.263463315047
         Total DFT energy =  -1147.263463315047
@    7   -1147.26346332 -1.8D-06  0.00040  0.00018  0.00115  0.00240   1181.3
         Total DFT energy =    -1147.263464684693
         Total DFT energy =  -1147.263464684693
@    8   -1147.26346468 -1.4D-06  0.00030  0.00011  0.00149  0.00363   1226.6
         Total DFT energy =    -1147.263465995329

                       DFT Final Molecular Orbital Analysis
                       ------------------------------------

 Vector    1  Occ=2.000000D+00  E=-1.005594D+02

 Vector  284  Occ=0.000000D+00  E= 4.310014D+00

 Vector  285  Occ=0.000000D+00  E= 4.334579D+00

 Vector  286  Occ=0.000000D+00  E= 4.401120D+00

 Vector  287  Occ=0.000000D+00  E= 4.411827D+00

 Vector  288  Occ=0.000000D+00  E= 4.413902D+00

 Vector  289  Occ=0.000000D+00  E= 4.559640D+00

 Vector  290  Occ=0.000000D+00  E= 4.578665D+00

 Vector  291  Occ=0.000000D+00  E= 4.687294D+00

 Vector  292  Occ=0.000000D+00  E= 4.733543D+00

 Vector  293  Occ=0.000000D+00  E= 4.776256D+00

 Vector  294  Occ=0.000000D+00  E= 4.860998D+00

 Vector  295  Occ=0.000000D+00  E= 4.947776D+00

 Vector  296  Occ=0.000000D+00  E= 5.051089D+00

 Vector  297  Occ=0.000000D+00  E= 5.100974D+00

 Vector  298  Occ=0.000000D+00  E= 5.249325D+00

 Vector  299  Occ=0.000000D+00  E= 5.327887D+00

 Vector  300  Occ=0.000000D+00  E= 5.358187D+00

 Vector  301  Occ=0.000000D+00  E= 5.412272D+00

 Vector  302  Occ=0.000000D+00  E= 5.485757D+00

 Vector  303  Occ=0.000000D+00  E= 5.686976D+00

 Vector  304  Occ=0.000000D+00  E= 5.705979D+00

 Vector  305  Occ=0.000000D+00  E= 5.837789D+00

 Vector  306  Occ=0.000000D+00  E= 5.905968D+00

 Vector  307  Occ=0.000000D+00  E= 5.931534D+00

 Vector  308  Occ=0.000000D+00  E= 5.948467D+00

 Vector  309  Occ=0.000000D+00  E= 6.028968D+00

 Vector  310  Occ=0.000000D+00  E= 6.158107D+00

 Vector  311  Occ=0.000000D+00  E= 6.255415D+00

 Vector  312  Occ=0.000000D+00  E= 6.303242D+00

 Vector  313  Occ=0.000000D+00  E= 6.330555D+00

 Vector  314  Occ=0.000000D+00  E= 6.357715D+00

 Vector  315  Occ=0.000000D+00  E= 6.367623D+00

 Vector  316  Occ=0.000000D+00  E= 6.473281D+00

 Vector  317  Occ=0.000000D+00  E= 6.556909D+00

 Vector  318  Occ=0.000000D+00  E= 6.574185D+00

 Vector  319  Occ=0.000000D+00  E= 6.590828D+00

 Vector  320  Occ=0.000000D+00  E= 6.670153D+00

 Vector  321  Occ=0.000000D+00  E= 6.720536D+00

 Vector  322  Occ=0.000000D+00  E= 6.745902D+00

 Vector  323  Occ=0.000000D+00  E= 6.784290D+00

 Vector  324  Occ=0.000000D+00  E= 6.858213D+00

 Vector  325  Occ=0.000000D+00  E= 6.887780D+00

 Vector  326  Occ=0.000000D+00  E= 6.892902D+00

 Vector  327  Occ=0.000000D+00  E= 6.982664D+00

 Vector  328  Occ=0.000000D+00  E= 7.108666D+00

 Vector  329  Occ=0.000000D+00  E= 7.221149D+00

 Vector  330  Occ=0.000000D+00  E= 7.261324D+00

 Vector  331  Occ=0.000000D+00  E= 7.326959D+00

 Vector  332  Occ=0.000000D+00  E= 7.388300D+00

 Vector  333  Occ=0.000000D+00  E= 7.450764D+00

 Vector  334  Occ=0.000000D+00  E= 7.498942D+00

 Vector  335  Occ=0.000000D+00  E= 7.593685D+00

 Vector  336  Occ=0.000000D+00  E= 7.716931D+00

 Vector  337  Occ=0.000000D+00  E= 7.766022D+00

 Vector  338  Occ=0.000000D+00  E= 7.974533D+00

 Vector  339  Occ=0.000000D+00  E= 8.089288D+00

 Vector  340  Occ=0.000000D+00  E= 8.152635D+00

 Vector  341  Occ=0.000000D+00  E= 8.485904D+00

 Vector  342  Occ=0.000000D+00  E= 8.660455D+00

 Vector  343  Occ=0.000000D+00  E= 9.030632D+00

 Vector  344  Occ=0.000000D+00  E= 9.040151D+00

 Vector  345  Occ=0.000000D+00  E= 9.434601D+00

 Vector  346  Occ=0.000000D+00  E= 9.671048D+00

 Vector  347  Occ=0.000000D+00  E= 9.866550D+00

 Vector  348  Occ=0.000000D+00  E= 1.014953D+01

 Vector  349  Occ=0.000000D+00  E= 1.035263D+01

 Vector  350  Occ=0.000000D+00  E= 1.208116D+01

 Vector  351  Occ=0.000000D+00  E= 1.302647D+01

 Vector  352  Occ=0.000000D+00  E= 1.386607D+01

 Vector  353  Occ=0.000000D+00  E= 1.436605D+01

 Vector  354  Occ=0.000000D+00  E= 1.447313D+01

 Vector  355  Occ=0.000000D+00  E= 1.473209D+01

 Vector  356  Occ=0.000000D+00  E= 1.530243D+01

 Vector  357  Occ=0.000000D+00  E= 1.539538D+01

 Vector  358  Occ=0.000000D+00  E= 1.676966D+01

 Vector  359  Occ=0.000000D+00  E= 1.691343D+01

 Vector  360  Occ=0.000000D+00  E= 1.891387D+01

 Vector  361  Occ=0.000000D+00  E= 1.963030D+01

 Vector  362  Occ=0.000000D+00  E= 2.810010D+01

 Vector  363  Occ=0.000000D+00  E= 2.925284D+01

     Multipole analysis of the density
     ---------------------------------

     L   x y z        total         alpha         beta         nuclear
     -   - - -        -----         -----         ----         -------
     0   0 0 0     -1.000000    -32.000000    -32.000000     63.000000

     1   1 0 0      0.337793     13.373311     13.373311    -26.408830
     1   0 1 0      0.552729     18.517210     18.517210    -36.481691
     1   0 0 1     -0.264582    -72.775005    -72.775005    145.285427

     2   2 0 0    -41.643512   -141.257626   -141.257626    240.871740
     2   1 1 0     -1.399708     25.585134     25.585134    -52.569977
     2   1 0 1      1.636716     54.031846     54.031846   -106.426976
     2   0 2 0    -43.283810   -109.033031   -109.033031    174.782252
     2   0 1 1      2.462795     80.227207     80.227207   -157.991619

         Total DFT energy =  -1147.263465995329
@    9   -1147.26346600 -1.3D-06  0.00034  0.00012  0.00056  0.00177   1272.1
@    9   -1147.26346600 -1.3D-06  0.00034  0.00012  0.00056  0.00177   1272.1

 Output coordinates in angstroms (scale by  1.889725989 to convert to a.u.)

  No.       Tag          Charge          X              Y              Z
 ---- ---------------- ---------- -------------- -------------- --------------
    1 C                    6.0000    -0.00282619    -0.00847686    -0.07545256
    2 C                    6.0000    -0.01728729     0.05111401     1.50859218
    3 O                    8.0000     0.58484252     1.00435820    -0.54130758
    4 O                    8.0000    -0.54386086    -0.99059763    -0.61559372
    5 H                    1.0000     0.49611359     0.93868263     1.88409838
    6 Cl                  17.0000    -1.71237918     0.15373246     2.18072604
    7 Cl                  17.0000     0.84895341    -1.36607780     2.26951027

 Total times  cpu:     1257.0s     wall:     1272.1s
