 Output coordinates in angstroms (scale by  1.889725989 to convert to a.u.)

  No.       Tag          Charge          X              Y              Z
 ---- ---------------- ---------- -------------- -------------- --------------
    1 P                   15.0000    -0.02632344     0.06402140    -0.06240298
    2 O                    8.0000    -0.07254596     1.54356797    -0.52273589
    3 O                    8.0000     1.34911174    -0.65953760    -0.26106562
    4 O                    8.0000    -0.04447960     0.14919821     1.72346066
    5 O                    8.0000    -1.27839989    -0.77528623    -0.42409005
    6 H                    1.0000     0.81211515    -0.28933075     1.86449488

         Total DFT energy =     -642.498768197309

                    DFT Final Alpha Molecular Orbital Analysis
                    ------------------------------------------

 Vector    1  Occ=1.000000D+00  E=-7.648108D+01

 Vector  225  Occ=0.000000D+00  E= 5.205206D+00

 Vector  226  Occ=0.000000D+00  E= 5.362602D+00

 Vector  227  Occ=0.000000D+00  E= 5.549956D+00

 Vector  228  Occ=0.000000D+00  E= 5.557904D+00

 Vector  229  Occ=0.000000D+00  E= 5.825088D+00

 Vector  230  Occ=0.000000D+00  E= 5.838861D+00

 Vector  231  Occ=0.000000D+00  E= 5.968383D+00

 Vector  232  Occ=0.000000D+00  E= 5.977373D+00

 Vector  233  Occ=0.000000D+00  E= 6.029497D+00

 Vector  234  Occ=0.000000D+00  E= 6.034812D+00

 Vector  235  Occ=0.000000D+00  E= 6.059809D+00

 Vector  236  Occ=0.000000D+00  E= 6.080011D+00

 Vector  237  Occ=0.000000D+00  E= 6.093317D+00

 Vector  238  Occ=0.000000D+00  E= 6.111818D+00

 Vector  239  Occ=0.000000D+00  E= 6.155763D+00

 Vector  240  Occ=0.000000D+00  E= 6.177086D+00

 Vector  241  Occ=0.000000D+00  E= 6.185460D+00

 Vector  242  Occ=0.000000D+00  E= 6.187973D+00

 Vector  243  Occ=0.000000D+00  E= 6.195297D+00

 Vector  244  Occ=0.000000D+00  E= 6.239477D+00

 Vector  245  Occ=0.000000D+00  E= 6.241799D+00

 Vector  246  Occ=0.000000D+00  E= 6.251948D+00

 Vector  247  Occ=0.000000D+00  E= 6.286238D+00

 Vector  248  Occ=0.000000D+00  E= 6.309260D+00

 Vector  249  Occ=0.000000D+00  E= 6.313803D+00

 Vector  250  Occ=0.000000D+00  E= 6.321449D+00

 Vector  251  Occ=0.000000D+00  E= 6.347342D+00

 Vector  252  Occ=0.000000D+00  E= 6.359508D+00

 Vector  253  Occ=0.000000D+00  E= 6.370897D+00

 Vector  254  Occ=0.000000D+00  E= 6.380532D+00

 Vector  255  Occ=0.000000D+00  E= 6.425156D+00

 Vector  256  Occ=0.000000D+00  E= 6.460226D+00

 Vector  257  Occ=0.000000D+00  E= 6.465632D+00

 Vector  258  Occ=0.000000D+00  E= 6.474703D+00

 Vector  259  Occ=0.000000D+00  E= 6.515052D+00

 Vector  260  Occ=0.000000D+00  E= 6.524805D+00

 Vector  261  Occ=0.000000D+00  E= 6.533206D+00

 Vector  262  Occ=0.000000D+00  E= 6.570598D+00

 Vector  263  Occ=0.000000D+00  E= 6.596074D+00

 Vector  264  Occ=0.000000D+00  E= 6.603584D+00

 Vector  265  Occ=0.000000D+00  E= 6.614392D+00

 Vector  266  Occ=0.000000D+00  E= 6.615730D+00

 Vector  267  Occ=0.000000D+00  E= 6.635008D+00

 Vector  268  Occ=0.000000D+00  E= 6.732243D+00

 Vector  269  Occ=0.000000D+00  E= 6.824527D+00

 Vector  270  Occ=0.000000D+00  E= 6.853393D+00

 Vector  271  Occ=0.000000D+00  E= 6.876169D+00

 Vector  272  Occ=0.000000D+00  E= 6.915217D+00

 Vector  273  Occ=0.000000D+00  E= 6.934308D+00

 Vector  274  Occ=0.000000D+00  E= 6.991362D+00

 Vector  275  Occ=0.000000D+00  E= 7.090389D+00

 Vector  276  Occ=0.000000D+00  E= 7.226296D+00

 Vector  277  Occ=0.000000D+00  E= 7.227438D+00

 Vector  278  Occ=0.000000D+00  E= 7.252429D+00

 Vector  279  Occ=0.000000D+00  E= 7.401765D+00

 Vector  280  Occ=0.000000D+00  E= 7.843282D+00

 Vector  281  Occ=0.000000D+00  E= 8.112858D+00

 Vector  282  Occ=0.000000D+00  E= 8.124708D+00

 Vector  283  Occ=0.000000D+00  E= 8.473396D+00

 Vector  284  Occ=0.000000D+00  E= 1.195655D+01

 Vector  285  Occ=0.000000D+00  E= 1.229204D+01

 Vector  286  Occ=0.000000D+00  E= 1.251942D+01

 Vector  287  Occ=0.000000D+00  E= 1.336355D+01

 Vector  288  Occ=0.000000D+00  E= 1.345815D+01

 Vector  289  Occ=0.000000D+00  E= 1.351126D+01

 Vector  290  Occ=0.000000D+00  E= 1.358342D+01

 Vector  291  Occ=0.000000D+00  E= 1.364156D+01

 Vector  292  Occ=0.000000D+00  E= 1.378910D+01

 Vector  293  Occ=0.000000D+00  E= 1.381658D+01

 Vector  294  Occ=0.000000D+00  E= 1.397299D+01

 Vector  295  Occ=0.000000D+00  E= 1.484352D+01

 Vector  296  Occ=0.000000D+00  E= 1.545433D+01

 Vector  297  Occ=0.000000D+00  E= 1.571317D+01

 Vector  298  Occ=0.000000D+00  E= 1.580332D+01

 Vector  299  Occ=0.000000D+00  E= 1.665241D+01

 Vector  300  Occ=0.000000D+00  E= 1.679929D+01

 Vector  301  Occ=0.000000D+00  E= 1.682155D+01

 Vector  302  Occ=0.000000D+00  E= 1.704501D+01

 Vector  303  Occ=0.000000D+00  E= 1.771803D+01

 Vector  304  Occ=0.000000D+00  E= 2.100931D+01

     Multipole analysis of the density
     ---------------------------------

     L   x y z        total         alpha         beta         nuclear
     -   - - -        -----         -----         ----         -------
     0   0 0 0     -0.000000    -25.000000    -23.000000     48.000000

     1   1 0 0      0.308464      0.242884     -0.022773      0.088352
     1   0 1 0     -0.134322     -2.814903     -2.486930      5.167511
     1   0 0 1      0.596909     -4.344068     -4.607814      9.548791

     2   2 0 0    -27.036418    -68.069325    -60.253639    101.286546
     2   1 1 0     -0.079485      0.411510      0.932035     -1.423029
     2   1 0 1      2.046249     -4.194403     -3.574535      9.815187
     2   0 2 0    -27.424909    -67.403227    -58.842172     98.820490
     2   0 1 1     -0.863660      1.583219      1.086766     -3.533645

 Total times  cpu:       83.5s     wall:       87.7s
