         Total DFT energy =     -264.835070764673
@ Step       Energy      Delta E   Gmax     Grms     Xrms     Xmax   Walltime
@ ---- ---------------- -------- -------- -------- -------- -------- --------
@    0    -264.83507076  0.0D+00  0.10762  0.03892  0.00000  0.00000     40.7
         Total DFT energy =     -264.843427989513
         Total DFT energy =     -264.848039183254
@    1    -264.84803918 -1.3D-02  0.03011  0.01729  0.06850  0.13585    103.1
         Total DFT energy =     -264.840748345740
         Total DFT energy =     -264.849827502539
@    2    -264.84982750 -1.8D-03  0.02004  0.00924  0.02566  0.08283    167.0
         Total DFT energy =     -264.829840114276
         Total DFT energy =     -264.850910848264
@    3    -264.85091085 -1.1D-03  0.00856  0.00392  0.01625  0.03192    232.2
         Total DFT energy =     -264.851233672307
         Total DFT energy =     -264.851236217354
@    4    -264.85123622 -3.3D-04  0.00572  0.00250  0.01826  0.04118    266.0
         Total DFT energy =     -264.851383601298
         Total DFT energy =     -264.851386758145
@    5    -264.85138676 -1.5D-04  0.00372  0.00164  0.01182  0.02163    295.8
         Total DFT energy =     -264.851463239502
         Total DFT energy =     -264.851468383026
@    6    -264.85146838 -8.2D-05  0.00183  0.00076  0.01289  0.02695    327.7
         Total DFT energy =     -264.851476460237
         Total DFT energy =   -264.851476460237
@    7    -264.85147646 -8.1D-06  0.00050  0.00031  0.00282  0.00536    347.0
         Total DFT energy =     -264.851477505044
         Total DFT energy =   -264.851477505044
@    8    -264.85147751 -1.0D-06  0.00018  0.00006  0.00094  0.00196    360.1
         Total DFT energy =     -264.851478094152

                       DFT Final Molecular Orbital Analysis
                       ------------------------------------

 Vector    1  Occ=2.000000D+00  E=-1.882374D+01

 Vector  191  Occ=0.000000D+00  E= 4.518937D+00

 Vector  192  Occ=0.000000D+00  E= 4.612621D+00

 Vector  193  Occ=0.000000D+00  E= 4.629178D+00

 Vector  194  Occ=0.000000D+00  E= 4.642200D+00

 Vector  195  Occ=0.000000D+00  E= 4.665725D+00

 Vector  196  Occ=0.000000D+00  E= 4.682227D+00

 Vector  197  Occ=0.000000D+00  E= 4.897423D+00

 Vector  198  Occ=0.000000D+00  E= 5.038659D+00

 Vector  199  Occ=0.000000D+00  E= 5.055523D+00

 Vector  200  Occ=0.000000D+00  E= 5.073020D+00

 Vector  201  Occ=0.000000D+00  E= 5.099306D+00

 Vector  202  Occ=0.000000D+00  E= 5.117767D+00

 Vector  203  Occ=0.000000D+00  E= 5.168339D+00

 Vector  204  Occ=0.000000D+00  E= 5.292886D+00

 Vector  205  Occ=0.000000D+00  E= 5.403057D+00

 Vector  206  Occ=0.000000D+00  E= 5.525295D+00

 Vector  207  Occ=0.000000D+00  E= 5.638797D+00

 Vector  208  Occ=0.000000D+00  E= 5.873512D+00

 Vector  209  Occ=0.000000D+00  E= 5.912541D+00

 Vector  210  Occ=0.000000D+00  E= 6.040461D+00

 Vector  211  Occ=0.000000D+00  E= 6.077067D+00

 Vector  212  Occ=0.000000D+00  E= 6.126748D+00

 Vector  213  Occ=0.000000D+00  E= 6.181475D+00

 Vector  214  Occ=0.000000D+00  E= 6.199063D+00

 Vector  215  Occ=0.000000D+00  E= 6.238053D+00

 Vector  216  Occ=0.000000D+00  E= 6.249835D+00

 Vector  217  Occ=0.000000D+00  E= 6.265949D+00

 Vector  218  Occ=0.000000D+00  E= 6.338131D+00

 Vector  219  Occ=0.000000D+00  E= 6.348046D+00

 Vector  220  Occ=0.000000D+00  E= 6.384587D+00

 Vector  221  Occ=0.000000D+00  E= 6.458967D+00

 Vector  222  Occ=0.000000D+00  E= 6.481375D+00

 Vector  223  Occ=0.000000D+00  E= 6.527618D+00

 Vector  224  Occ=0.000000D+00  E= 6.578380D+00

 Vector  225  Occ=0.000000D+00  E= 6.589127D+00

 Vector  226  Occ=0.000000D+00  E= 6.608079D+00

 Vector  227  Occ=0.000000D+00  E= 6.638063D+00

 Vector  228  Occ=0.000000D+00  E= 6.644842D+00

 Vector  229  Occ=0.000000D+00  E= 6.681989D+00

 Vector  230  Occ=0.000000D+00  E= 6.730164D+00

 Vector  231  Occ=0.000000D+00  E= 6.764359D+00

 Vector  232  Occ=0.000000D+00  E= 6.770714D+00

 Vector  233  Occ=0.000000D+00  E= 6.856709D+00

 Vector  234  Occ=0.000000D+00  E= 6.871007D+00

 Vector  235  Occ=0.000000D+00  E= 6.973135D+00

 Vector  236  Occ=0.000000D+00  E= 6.986878D+00

 Vector  237  Occ=0.000000D+00  E= 7.044168D+00

 Vector  238  Occ=0.000000D+00  E= 7.145379D+00

 Vector  239  Occ=0.000000D+00  E= 7.215348D+00

 Vector  240  Occ=0.000000D+00  E= 7.281777D+00

 Vector  241  Occ=0.000000D+00  E= 7.286767D+00

 Vector  242  Occ=0.000000D+00  E= 7.310064D+00

 Vector  243  Occ=0.000000D+00  E= 7.476511D+00

 Vector  244  Occ=0.000000D+00  E= 7.542312D+00

 Vector  245  Occ=0.000000D+00  E= 7.633114D+00

 Vector  246  Occ=0.000000D+00  E= 7.700287D+00

 Vector  247  Occ=0.000000D+00  E= 7.795282D+00

 Vector  248  Occ=0.000000D+00  E= 8.033517D+00

 Vector  249  Occ=0.000000D+00  E= 8.099086D+00

 Vector  250  Occ=0.000000D+00  E= 8.498145D+00

 Vector  251  Occ=0.000000D+00  E= 8.720910D+00

 Vector  252  Occ=0.000000D+00  E= 8.909720D+00

 Vector  253  Occ=0.000000D+00  E= 9.473058D+00

 Vector  254  Occ=0.000000D+00  E= 9.992211D+00

 Vector  255  Occ=0.000000D+00  E= 1.334748D+01

 Vector  256  Occ=0.000000D+00  E= 1.352529D+01

 Vector  257  Occ=0.000000D+00  E= 1.375041D+01

 Vector  258  Occ=0.000000D+00  E= 1.408341D+01

 Vector  259  Occ=0.000000D+00  E= 1.437126D+01

 Vector  260  Occ=0.000000D+00  E= 1.486759D+01

 Vector  261  Occ=0.000000D+00  E= 1.552251D+01

 Vector  262  Occ=0.000000D+00  E= 1.571652D+01

 Vector  263  Occ=0.000000D+00  E= 1.579244D+01

 Vector  264  Occ=0.000000D+00  E= 1.658344D+01

 Vector  265  Occ=0.000000D+00  E= 1.665588D+01

 Vector  266  Occ=0.000000D+00  E= 1.673381D+01

 Vector  267  Occ=0.000000D+00  E= 1.711250D+01

 Vector  268  Occ=0.000000D+00  E= 1.783816D+01

 Vector  269  Occ=0.000000D+00  E= 1.909783D+01

 Vector  270  Occ=0.000000D+00  E= 2.838356D+01

     Multipole analysis of the density
     ---------------------------------

     L   x y z        total         alpha         beta         nuclear
     -   - - -        -----         -----         ----         -------
     0   0 0 0     -0.000000    -16.000000    -16.000000     32.000000

     1   1 0 0     -0.332771      0.625632      0.625632     -1.584035
     1   0 1 0     -0.492838      1.455888      1.455888     -3.404613
     1   0 0 1      1.035465     -2.312500     -2.312500      5.660465

     2   2 0 0    -16.543373    -18.134610    -18.134610     19.725848
     2   1 1 0      0.590120    -17.888811    -17.888811     36.367742
     2   1 0 1      0.933162      2.003612      2.003612     -3.074062
     2   0 2 0    -15.488798    -41.852484    -41.852484     68.216170
     2   0 1 1      1.671080     -1.170594     -1.170594      4.012268

         Total DFT energy =   -264.851478094152
@    9    -264.85147809 -5.9D-07  0.00026  0.00010  0.00029  0.00062    371.1
@    9    -264.85147809 -5.9D-07  0.00026  0.00010  0.00029  0.00062    371.1

 Output coordinates in angstroms (scale by  1.889725989 to convert to a.u.)

  No.       Tag          Charge          X              Y              Z
 ---- ---------------- ---------- -------------- -------------- --------------
    1 C                    6.0000     0.03151576     0.03922329    -0.00514599
    2 O                    8.0000    -0.10488488    -0.05325387     1.35442900
    3 O                    8.0000     0.55797217     0.94825802    -0.59460925
    4 O                    8.0000    -0.51027424    -1.03975318    -0.60645019
    5 H                    1.0000     0.30405522     0.75256234     1.72128109
    6 H                    1.0000    -0.87388964    -1.63155379     0.07802753

 Total times  cpu:      361.6s     wall:      371.1s
