 Output coordinates in angstroms (scale by  1.889725989 to convert to a.u.)

  No.       Tag          Charge          X              Y              Z
 ---- ---------------- ---------- -------------- -------------- --------------
    1 S                   16.0000    -0.02859151     0.03526175    -0.13725269
    2 O                    8.0000    -0.28814956     1.39292264     0.46349913
    3 O                    8.0000    -0.82530437    -1.06558246     0.54655405
    4 O                    8.0000     1.62577545    -0.38007972     0.48848168
    5 H                    1.0000     1.36771900    -1.07726122     1.12192784

         Total DFT energy =     -624.116018095231

                    DFT Final Alpha Molecular Orbital Analysis
                    ------------------------------------------

 Vector    1  Occ=1.000000D+00  E=-8.829184D+01

 Vector  170  Occ=0.000000D+00  E= 3.515773D+00

 Vector  171  Occ=0.000000D+00  E= 3.581785D+00

 Vector  172  Occ=0.000000D+00  E= 3.660701D+00

 Vector  173  Occ=0.000000D+00  E= 3.814072D+00

 Vector  174  Occ=0.000000D+00  E= 3.940796D+00

 Vector  175  Occ=0.000000D+00  E= 4.011007D+00

 Vector  176  Occ=0.000000D+00  E= 4.184606D+00

 Vector  177  Occ=0.000000D+00  E= 4.407058D+00

 Vector  178  Occ=0.000000D+00  E= 4.420643D+00

 Vector  179  Occ=0.000000D+00  E= 4.564806D+00

 Vector  180  Occ=0.000000D+00  E= 4.599654D+00

 Vector  181  Occ=0.000000D+00  E= 4.735107D+00

 Vector  182  Occ=0.000000D+00  E= 4.794228D+00

 Vector  183  Occ=0.000000D+00  E= 4.860042D+00

 Vector  184  Occ=0.000000D+00  E= 4.960845D+00

 Vector  185  Occ=0.000000D+00  E= 4.977395D+00

 Vector  186  Occ=0.000000D+00  E= 4.994506D+00

 Vector  187  Occ=0.000000D+00  E= 5.038319D+00

 Vector  188  Occ=0.000000D+00  E= 5.072705D+00

 Vector  189  Occ=0.000000D+00  E= 5.147087D+00

 Vector  190  Occ=0.000000D+00  E= 5.236610D+00

 Vector  191  Occ=0.000000D+00  E= 5.403556D+00

 Vector  192  Occ=0.000000D+00  E= 5.613901D+00

 Vector  193  Occ=0.000000D+00  E= 5.706848D+00

 Vector  194  Occ=0.000000D+00  E= 5.730941D+00

 Vector  195  Occ=0.000000D+00  E= 5.886149D+00

 Vector  196  Occ=0.000000D+00  E= 5.972374D+00

 Vector  197  Occ=0.000000D+00  E= 5.981578D+00

 Vector  198  Occ=0.000000D+00  E= 6.007307D+00

 Vector  199  Occ=0.000000D+00  E= 6.029765D+00

 Vector  200  Occ=0.000000D+00  E= 6.052853D+00

 Vector  201  Occ=0.000000D+00  E= 6.116297D+00

 Vector  202  Occ=0.000000D+00  E= 6.170752D+00

 Vector  203  Occ=0.000000D+00  E= 6.182502D+00

 Vector  204  Occ=0.000000D+00  E= 6.208652D+00

 Vector  205  Occ=0.000000D+00  E= 6.215730D+00

 Vector  206  Occ=0.000000D+00  E= 6.236152D+00

 Vector  207  Occ=0.000000D+00  E= 6.242213D+00

 Vector  208  Occ=0.000000D+00  E= 6.306555D+00

 Vector  209  Occ=0.000000D+00  E= 6.345619D+00

 Vector  210  Occ=0.000000D+00  E= 6.402370D+00

 Vector  211  Occ=0.000000D+00  E= 6.426266D+00

 Vector  212  Occ=0.000000D+00  E= 6.435223D+00

 Vector  213  Occ=0.000000D+00  E= 6.441722D+00

 Vector  214  Occ=0.000000D+00  E= 6.451590D+00

 Vector  215  Occ=0.000000D+00  E= 6.486156D+00

 Vector  216  Occ=0.000000D+00  E= 6.501623D+00

 Vector  217  Occ=0.000000D+00  E= 6.520723D+00

 Vector  218  Occ=0.000000D+00  E= 6.554672D+00

 Vector  219  Occ=0.000000D+00  E= 6.576646D+00

 Vector  220  Occ=0.000000D+00  E= 6.607588D+00

 Vector  221  Occ=0.000000D+00  E= 6.610172D+00

 Vector  222  Occ=0.000000D+00  E= 6.635693D+00

 Vector  223  Occ=0.000000D+00  E= 6.693847D+00

 Vector  224  Occ=0.000000D+00  E= 6.784178D+00

 Vector  225  Occ=0.000000D+00  E= 6.858937D+00

 Vector  226  Occ=0.000000D+00  E= 6.936606D+00

 Vector  227  Occ=0.000000D+00  E= 7.052871D+00

 Vector  228  Occ=0.000000D+00  E= 7.157632D+00

 Vector  229  Occ=0.000000D+00  E= 7.224527D+00

 Vector  230  Occ=0.000000D+00  E= 7.388691D+00

 Vector  231  Occ=0.000000D+00  E= 7.614446D+00

 Vector  232  Occ=0.000000D+00  E= 7.769530D+00

 Vector  233  Occ=0.000000D+00  E= 8.425461D+00

 Vector  234  Occ=0.000000D+00  E= 1.128512D+01

 Vector  235  Occ=0.000000D+00  E= 1.232310D+01

 Vector  236  Occ=0.000000D+00  E= 1.317744D+01

 Vector  237  Occ=0.000000D+00  E= 1.333667D+01

 Vector  238  Occ=0.000000D+00  E= 1.338215D+01

 Vector  239  Occ=0.000000D+00  E= 1.345391D+01

 Vector  240  Occ=0.000000D+00  E= 1.363961D+01

 Vector  241  Occ=0.000000D+00  E= 1.393949D+01

 Vector  242  Occ=0.000000D+00  E= 1.463116D+01

 Vector  243  Occ=0.000000D+00  E= 1.483942D+01

 Vector  244  Occ=0.000000D+00  E= 1.569522D+01

 Vector  245  Occ=0.000000D+00  E= 1.584637D+01

 Vector  246  Occ=0.000000D+00  E= 1.674527D+01

 Vector  247  Occ=0.000000D+00  E= 1.683753D+01

 Vector  248  Occ=0.000000D+00  E= 1.689321D+01

 Vector  249  Occ=0.000000D+00  E= 1.734046D+01

     Multipole analysis of the density
     ---------------------------------

     L   x y z        total         alpha         beta         nuclear
     -   - - -        -----         -----         ----         -------
     0   0 0 0     -0.000000    -21.000000    -20.000000     41.000000

     1   1 0 0      0.253232     -4.639637     -4.572442      9.465311
     1   0 1 0     -0.413937      0.647148      0.705790     -1.766874
     1   0 0 1     -0.246667    -10.639749    -10.231696     20.624779

     2   2 0 0    -23.521183    -65.352998    -62.236717    104.068532
     2   1 1 0     -1.460606      3.937102      3.917189     -9.314897
     2   1 0 1      1.497973     -5.070862     -5.121109     11.689944
     2   0 2 0    -23.390620    -61.587599    -58.013444     96.210423
     2   0 1 1     -1.482985      3.309670      3.297881     -8.090537

 Total times  cpu:       40.3s     wall:       41.1s
