 Output coordinates in angstroms (scale by  1.889725989 to convert to a.u.)

  No.       Tag          Charge          X              Y              Z
 ---- ---------------- ---------- -------------- -------------- --------------
    1 C                    6.0000    -0.00260774    -0.00530338    -0.03866014
    2 C                    6.0000    -0.03318808     0.03015617     1.52822347
    3 O                    8.0000     0.59087541     0.99421703    -0.53239744
    4 O                    8.0000    -0.54752501    -0.99681569    -0.57686474
    5 H                    1.0000     0.33815139     0.98345360     1.93868023
    6 F                    9.0000    -1.31399565    -0.17049732     2.04563152
    7 F                    9.0000     0.75775868    -0.98531541     2.07552610

         Total DFT energy =     -426.625668998259

                    DFT Final Alpha Molecular Orbital Analysis
                    ------------------------------------------

 Vector    1  Occ=1.000000D+00  E=-2.432541D+01

 Vector  276  Occ=0.000000D+00  E= 6.405839D+00

 Vector  277  Occ=0.000000D+00  E= 6.455055D+00

 Vector  278  Occ=0.000000D+00  E= 6.489052D+00

 Vector  279  Occ=0.000000D+00  E= 6.531657D+00

 Vector  280  Occ=0.000000D+00  E= 6.564238D+00

 Vector  281  Occ=0.000000D+00  E= 6.623538D+00

 Vector  282  Occ=0.000000D+00  E= 6.631658D+00

 Vector  283  Occ=0.000000D+00  E= 6.821724D+00

 Vector  284  Occ=0.000000D+00  E= 6.842817D+00

 Vector  285  Occ=0.000000D+00  E= 6.863465D+00

 Vector  286  Occ=0.000000D+00  E= 6.923835D+00

 Vector  287  Occ=0.000000D+00  E= 6.942557D+00

 Vector  288  Occ=0.000000D+00  E= 6.952987D+00

 Vector  289  Occ=0.000000D+00  E= 6.984927D+00

 Vector  290  Occ=0.000000D+00  E= 6.999914D+00

 Vector  291  Occ=0.000000D+00  E= 7.083018D+00

 Vector  292  Occ=0.000000D+00  E= 7.099908D+00

 Vector  293  Occ=0.000000D+00  E= 7.138576D+00

 Vector  294  Occ=0.000000D+00  E= 7.227401D+00

 Vector  295  Occ=0.000000D+00  E= 7.240072D+00

 Vector  296  Occ=0.000000D+00  E= 7.459456D+00

 Vector  297  Occ=0.000000D+00  E= 7.512465D+00

 Vector  298  Occ=0.000000D+00  E= 7.664556D+00

 Vector  299  Occ=0.000000D+00  E= 7.714092D+00

 Vector  300  Occ=0.000000D+00  E= 7.877007D+00

 Vector  301  Occ=0.000000D+00  E= 7.921731D+00

 Vector  302  Occ=0.000000D+00  E= 8.076529D+00

 Vector  303  Occ=0.000000D+00  E= 8.239744D+00

 Vector  304  Occ=0.000000D+00  E= 8.243629D+00

 Vector  305  Occ=0.000000D+00  E= 8.306276D+00

 Vector  306  Occ=0.000000D+00  E= 8.329866D+00

 Vector  307  Occ=0.000000D+00  E= 8.366309D+00

 Vector  308  Occ=0.000000D+00  E= 8.461155D+00

 Vector  309  Occ=0.000000D+00  E= 8.485472D+00

 Vector  310  Occ=0.000000D+00  E= 8.570377D+00

 Vector  311  Occ=0.000000D+00  E= 8.584174D+00

 Vector  312  Occ=0.000000D+00  E= 8.613292D+00

 Vector  313  Occ=0.000000D+00  E= 8.620001D+00

 Vector  314  Occ=0.000000D+00  E= 8.623130D+00

 Vector  315  Occ=0.000000D+00  E= 8.632740D+00

 Vector  316  Occ=0.000000D+00  E= 8.699755D+00

 Vector  317  Occ=0.000000D+00  E= 8.727114D+00

 Vector  318  Occ=0.000000D+00  E= 8.740856D+00

 Vector  319  Occ=0.000000D+00  E= 8.769127D+00

 Vector  320  Occ=0.000000D+00  E= 8.820247D+00

 Vector  321  Occ=0.000000D+00  E= 8.854881D+00

 Vector  322  Occ=0.000000D+00  E= 8.976483D+00

 Vector  323  Occ=0.000000D+00  E= 8.979083D+00

 Vector  324  Occ=0.000000D+00  E= 9.013339D+00

 Vector  325  Occ=0.000000D+00  E= 9.095562D+00

 Vector  326  Occ=0.000000D+00  E= 9.108625D+00

 Vector  327  Occ=0.000000D+00  E= 9.312698D+00

 Vector  328  Occ=0.000000D+00  E= 9.441453D+00

 Vector  329  Occ=0.000000D+00  E= 9.722982D+00

 Vector  330  Occ=0.000000D+00  E= 9.948750D+00

 Vector  331  Occ=0.000000D+00  E= 9.954342D+00

 Vector  332  Occ=0.000000D+00  E= 1.004065D+01

 Vector  333  Occ=0.000000D+00  E= 1.009530D+01

 Vector  334  Occ=0.000000D+00  E= 1.327207D+01

 Vector  335  Occ=0.000000D+00  E= 1.353755D+01

 Vector  336  Occ=0.000000D+00  E= 1.399728D+01

 Vector  337  Occ=0.000000D+00  E= 1.426174D+01

 Vector  338  Occ=0.000000D+00  E= 1.477341D+01

 Vector  339  Occ=0.000000D+00  E= 1.507556D+01

 Vector  340  Occ=0.000000D+00  E= 1.551364D+01

 Vector  341  Occ=0.000000D+00  E= 1.641491D+01

 Vector  342  Occ=0.000000D+00  E= 1.658103D+01

 Vector  343  Occ=0.000000D+00  E= 1.665575D+01

 Vector  344  Occ=0.000000D+00  E= 1.816465D+01

 Vector  345  Occ=0.000000D+00  E= 1.837778D+01

 Vector  346  Occ=0.000000D+00  E= 1.864839D+01

 Vector  347  Occ=0.000000D+00  E= 1.869248D+01

 Vector  348  Occ=0.000000D+00  E= 1.889992D+01

 Vector  349  Occ=0.000000D+00  E= 1.921840D+01

 Vector  350  Occ=0.000000D+00  E= 2.106609D+01

 Vector  351  Occ=0.000000D+00  E= 2.116653D+01

 Vector  352  Occ=0.000000D+00  E= 2.313580D+01

 Vector  353  Occ=0.000000D+00  E= 2.366427D+01

 Vector  354  Occ=0.000000D+00  E= 2.826701D+01

 Vector  355  Occ=0.000000D+00  E= 2.867237D+01

     Multipole analysis of the density
     ---------------------------------

     L   x y z        total         alpha         beta         nuclear
     -   - - -        -----         -----         ----         -------
     0   0 0 0     -0.000000    -24.000000    -23.000000     47.000000

     1   1 0 0      0.140103      4.382762      4.329049     -8.571708
     1   0 1 0      0.443639      9.075862      8.924340    -17.556563
     1   0 0 1      0.582884    -36.579414    -36.711590     73.873889

     2   2 0 0    -24.952178    -59.687159    -58.181898     92.916879
     2   1 1 0     -0.909918     -9.526638     -8.128595     16.745315
     2   1 0 1      0.823502     17.735214     17.637725    -34.549437
     2   0 2 0    -25.365196    -60.357860    -57.244072     92.236736
     2   0 1 1      2.093269     35.003368     34.920071    -67.830169

 Total times  cpu:      105.8s     wall:      107.0s
