 Output coordinates in angstroms (scale by  1.889725989 to convert to a.u.)

  No.       Tag          Charge          X              Y              Z
 ---- ---------------- ---------- -------------- -------------- --------------
    1 S                   16.0000    -0.00033402     0.00040839    -0.02351707
    2 O                    8.0000    -0.00091234     1.44351569    -0.53790438
    3 O                    8.0000     1.25137804    -0.72228747    -0.53147647
    4 O                    8.0000    -0.00134733     0.00430513     1.50845551
    5 O                    8.0000    -1.25042234    -0.72389274    -0.53320158

         Total DFT energy =     -698.790728208714

                    DFT Final Alpha Molecular Orbital Analysis
                    ------------------------------------------

 Vector    1  Occ=1.000000D+00  E=-8.810613D+01

 Vector  200  Occ=0.000000D+00  E= 5.226374D+00

 Vector  201  Occ=0.000000D+00  E= 5.257526D+00

 Vector  202  Occ=0.000000D+00  E= 5.262886D+00

 Vector  203  Occ=0.000000D+00  E= 5.698279D+00

 Vector  204  Occ=0.000000D+00  E= 5.774190D+00

 Vector  205  Occ=0.000000D+00  E= 5.774380D+00

 Vector  206  Occ=0.000000D+00  E= 5.775061D+00

 Vector  207  Occ=0.000000D+00  E= 5.882007D+00

 Vector  208  Occ=0.000000D+00  E= 5.882039D+00

 Vector  209  Occ=0.000000D+00  E= 5.882420D+00

 Vector  210  Occ=0.000000D+00  E= 6.217859D+00

 Vector  211  Occ=0.000000D+00  E= 6.217877D+00

 Vector  212  Occ=0.000000D+00  E= 6.218057D+00

 Vector  213  Occ=0.000000D+00  E= 6.222357D+00

 Vector  214  Occ=0.000000D+00  E= 6.227108D+00

 Vector  215  Occ=0.000000D+00  E= 6.227626D+00

 Vector  216  Occ=0.000000D+00  E= 6.267490D+00

 Vector  217  Occ=0.000000D+00  E= 6.267509D+00

 Vector  218  Occ=0.000000D+00  E= 6.267680D+00

 Vector  219  Occ=0.000000D+00  E= 6.311635D+00

 Vector  220  Occ=0.000000D+00  E= 6.395810D+00

 Vector  221  Occ=0.000000D+00  E= 6.449028D+00

 Vector  222  Occ=0.000000D+00  E= 6.450366D+00

 Vector  223  Occ=0.000000D+00  E= 6.499980D+00

 Vector  224  Occ=0.000000D+00  E= 6.500136D+00

 Vector  225  Occ=0.000000D+00  E= 6.500141D+00

 Vector  226  Occ=0.000000D+00  E= 6.515287D+00

 Vector  227  Occ=0.000000D+00  E= 6.515295D+00

 Vector  228  Occ=0.000000D+00  E= 6.515768D+00

 Vector  229  Occ=0.000000D+00  E= 6.635501D+00

 Vector  230  Occ=0.000000D+00  E= 6.635661D+00

 Vector  231  Occ=0.000000D+00  E= 6.635671D+00

 Vector  232  Occ=0.000000D+00  E= 6.657394D+00

 Vector  233  Occ=0.000000D+00  E= 6.657918D+00

 Vector  234  Occ=0.000000D+00  E= 6.661960D+00

 Vector  235  Occ=0.000000D+00  E= 6.662713D+00

 Vector  236  Occ=0.000000D+00  E= 6.662722D+00

 Vector  237  Occ=0.000000D+00  E= 6.716835D+00

 Vector  238  Occ=0.000000D+00  E= 6.717182D+00

 Vector  239  Occ=0.000000D+00  E= 6.717216D+00

 Vector  240  Occ=0.000000D+00  E= 6.740784D+00

 Vector  241  Occ=0.000000D+00  E= 6.740792D+00

 Vector  242  Occ=0.000000D+00  E= 6.741317D+00

 Vector  243  Occ=0.000000D+00  E= 6.869996D+00

 Vector  244  Occ=0.000000D+00  E= 6.871622D+00

 Vector  245  Occ=0.000000D+00  E= 6.871636D+00

 Vector  246  Occ=0.000000D+00  E= 6.938853D+00

 Vector  247  Occ=0.000000D+00  E= 6.938866D+00

 Vector  248  Occ=0.000000D+00  E= 6.942443D+00

 Vector  249  Occ=0.000000D+00  E= 7.295658D+00

 Vector  250  Occ=0.000000D+00  E= 7.299303D+00

 Vector  251  Occ=0.000000D+00  E= 7.299355D+00

 Vector  252  Occ=0.000000D+00  E= 7.340457D+00

 Vector  253  Occ=0.000000D+00  E= 7.458549D+00

 Vector  254  Occ=0.000000D+00  E= 7.463432D+00

 Vector  255  Occ=0.000000D+00  E= 7.837169D+00

 Vector  256  Occ=0.000000D+00  E= 7.908779D+00

 Vector  257  Occ=0.000000D+00  E= 7.908834D+00

 Vector  258  Occ=0.000000D+00  E= 7.909320D+00

 Vector  259  Occ=0.000000D+00  E= 1.257793D+01

 Vector  260  Occ=0.000000D+00  E= 1.257809D+01

 Vector  261  Occ=0.000000D+00  E= 1.257847D+01

 Vector  262  Occ=0.000000D+00  E= 1.306963D+01

 Vector  263  Occ=0.000000D+00  E= 1.343434D+01

 Vector  264  Occ=0.000000D+00  E= 1.343440D+01

 Vector  265  Occ=0.000000D+00  E= 1.343636D+01

 Vector  266  Occ=0.000000D+00  E= 1.395441D+01

 Vector  267  Occ=0.000000D+00  E= 1.395629D+01

 Vector  268  Occ=0.000000D+00  E= 1.395635D+01

 Vector  269  Occ=0.000000D+00  E= 1.405988D+01

 Vector  270  Occ=0.000000D+00  E= 1.406249D+01

 Vector  271  Occ=0.000000D+00  E= 1.517038D+01

 Vector  272  Occ=0.000000D+00  E= 1.647239D+01

 Vector  273  Occ=0.000000D+00  E= 1.647245D+01

 Vector  274  Occ=0.000000D+00  E= 1.647255D+01

 Vector  275  Occ=0.000000D+00  E= 1.712866D+01

 Vector  276  Occ=0.000000D+00  E= 1.712871D+01

 Vector  277  Occ=0.000000D+00  E= 1.712882D+01

 Vector  278  Occ=0.000000D+00  E= 1.713469D+01

 Vector  279  Occ=0.000000D+00  E= 3.669303D+01

     Multipole analysis of the density
     ---------------------------------

     L   x y z        total         alpha         beta         nuclear
     -   - - -        -----         -----         ----         -------
     0   0 0 0     -1.000000    -25.000000    -24.000000     48.000000

     1   1 0 0      0.000931      0.015544      0.015199     -0.029812
     1   0 1 0     -0.000987     -0.019386     -0.018751      0.037150
     1   0 0 1      0.044781      1.111646      1.067180     -2.134046

     2   2 0 0    -31.829470    -62.288975    -58.945830     89.405335
     2   1 1 0     -0.056353      0.013614     -0.069794     -0.000174
     2   1 0 1      0.078874     -0.021095      0.096448      0.003521
     2   0 2 0    -31.765167    -62.304302    -58.865354     89.404489
     2   0 1 1      0.046074     -0.008929      0.058973     -0.003970

 Total times  cpu:      134.0s     wall:      137.4s
