         Total DFT energy =     -280.709621478457
@ Step       Energy      Delta E   Gmax     Grms     Xrms     Xmax   Walltime
@ ---- ---------------- -------- -------- -------- -------- -------- --------
@    0    -280.70962148  0.0D+00  0.18763  0.06728  0.00000  0.00000     27.6
         Total DFT energy =     -280.738185609947
         Total DFT energy =     -280.742889765443
@    1    -280.74288977 -3.3D-02  0.05531  0.02876  0.10175  0.19685     66.3
         Total DFT energy =     -280.752468852094
         Total DFT energy =     -280.753376070928
@    2    -280.75337607 -1.0D-02  0.02373  0.01161  0.06819  0.11402    102.5
         Total DFT energy =     -280.747714109777
         Total DFT energy =     -280.754253412013
@    3    -280.75425341 -8.8D-04  0.01871  0.00952  0.01974  0.04196    141.1
         Total DFT energy =     -280.754578335193
         Total DFT energy =     -280.755269412501
@    4    -280.75526941 -1.0D-03  0.00795  0.00455  0.02368  0.04714    173.5
         Total DFT energy =     -280.754798572818
         Total DFT energy =     -280.755667242855
@    5    -280.75566724 -4.0D-04  0.00508  0.00286  0.01684  0.04159    204.5
         Total DFT energy =     -280.755771586200
         Total DFT energy =     -280.755780345854
@    6    -280.75578035 -1.1D-04  0.00372  0.00149  0.00757  0.01249    225.5
         Total DFT energy =     -280.755807391518
         Total DFT energy =     -280.755808740947
@    7    -280.75580874 -2.8D-05  0.00194  0.00078  0.00541  0.01077    246.7
         Total DFT energy =     -280.755826136688
         Total DFT energy =     -280.755841942251
@    8    -280.75584194 -3.3D-05  0.00116  0.00064  0.01123  0.02439    267.9
         Total DFT energy =     -280.755848692640
         Total DFT energy =     -280.755848672604
@    9    -280.75584867 -6.7D-06  0.00015  0.00007  0.00425  0.00933    282.7
         Total DFT energy =     -280.755848885901

                       DFT Final Molecular Orbital Analysis
                       ------------------------------------

 Vector    1  Occ=2.000000D+00  E=-1.885022D+01

 Vector  166  Occ=0.000000D+00  E= 4.614175D+00

 Vector  167  Occ=0.000000D+00  E= 4.641538D+00

 Vector  168  Occ=0.000000D+00  E= 4.644561D+00

 Vector  169  Occ=0.000000D+00  E= 4.726724D+00

 Vector  170  Occ=0.000000D+00  E= 4.741241D+00

 Vector  171  Occ=0.000000D+00  E= 4.785787D+00

 Vector  172  Occ=0.000000D+00  E= 4.897826D+00

 Vector  173  Occ=0.000000D+00  E= 5.014186D+00

 Vector  174  Occ=0.000000D+00  E= 5.035459D+00

 Vector  175  Occ=0.000000D+00  E= 5.036345D+00

 Vector  176  Occ=0.000000D+00  E= 5.161990D+00

 Vector  177  Occ=0.000000D+00  E= 5.165745D+00

 Vector  178  Occ=0.000000D+00  E= 5.185619D+00

 Vector  179  Occ=0.000000D+00  E= 5.190892D+00

 Vector  180  Occ=0.000000D+00  E= 5.335491D+00

 Vector  181  Occ=0.000000D+00  E= 5.443103D+00

 Vector  182  Occ=0.000000D+00  E= 5.556128D+00

 Vector  183  Occ=0.000000D+00  E= 5.590401D+00

 Vector  184  Occ=0.000000D+00  E= 5.860432D+00

 Vector  185  Occ=0.000000D+00  E= 5.930012D+00

 Vector  186  Occ=0.000000D+00  E= 5.943972D+00

 Vector  187  Occ=0.000000D+00  E= 5.957992D+00

 Vector  188  Occ=0.000000D+00  E= 5.978992D+00

 Vector  189  Occ=0.000000D+00  E= 6.049570D+00

 Vector  190  Occ=0.000000D+00  E= 6.083060D+00

 Vector  191  Occ=0.000000D+00  E= 6.091744D+00

 Vector  192  Occ=0.000000D+00  E= 6.148502D+00

 Vector  193  Occ=0.000000D+00  E= 6.208918D+00

 Vector  194  Occ=0.000000D+00  E= 6.230489D+00

 Vector  195  Occ=0.000000D+00  E= 6.253455D+00

 Vector  196  Occ=0.000000D+00  E= 6.315234D+00

 Vector  197  Occ=0.000000D+00  E= 6.364566D+00

 Vector  198  Occ=0.000000D+00  E= 6.379379D+00

 Vector  199  Occ=0.000000D+00  E= 6.457835D+00

 Vector  200  Occ=0.000000D+00  E= 6.470207D+00

 Vector  201  Occ=0.000000D+00  E= 6.537519D+00

 Vector  202  Occ=0.000000D+00  E= 6.571846D+00

 Vector  203  Occ=0.000000D+00  E= 6.599544D+00

 Vector  204  Occ=0.000000D+00  E= 6.650679D+00

 Vector  205  Occ=0.000000D+00  E= 6.668307D+00

 Vector  206  Occ=0.000000D+00  E= 6.680982D+00

 Vector  207  Occ=0.000000D+00  E= 6.754042D+00

 Vector  208  Occ=0.000000D+00  E= 6.829429D+00

 Vector  209  Occ=0.000000D+00  E= 6.848777D+00

 Vector  210  Occ=0.000000D+00  E= 6.892213D+00

 Vector  211  Occ=0.000000D+00  E= 6.937346D+00

 Vector  212  Occ=0.000000D+00  E= 7.069496D+00

 Vector  213  Occ=0.000000D+00  E= 7.163894D+00

 Vector  214  Occ=0.000000D+00  E= 7.216149D+00

 Vector  215  Occ=0.000000D+00  E= 7.227662D+00

 Vector  216  Occ=0.000000D+00  E= 7.262925D+00

 Vector  217  Occ=0.000000D+00  E= 7.278512D+00

 Vector  218  Occ=0.000000D+00  E= 7.495258D+00

 Vector  219  Occ=0.000000D+00  E= 7.566306D+00

 Vector  220  Occ=0.000000D+00  E= 7.625788D+00

 Vector  221  Occ=0.000000D+00  E= 7.902053D+00

 Vector  222  Occ=0.000000D+00  E= 7.967395D+00

 Vector  223  Occ=0.000000D+00  E= 8.119040D+00

 Vector  224  Occ=0.000000D+00  E= 8.258317D+00

 Vector  225  Occ=0.000000D+00  E= 8.637281D+00

 Vector  226  Occ=0.000000D+00  E= 9.680017D+00

 Vector  227  Occ=0.000000D+00  E= 1.165683D+01

 Vector  228  Occ=0.000000D+00  E= 1.194731D+01

 Vector  229  Occ=0.000000D+00  E= 1.242435D+01

 Vector  230  Occ=0.000000D+00  E= 1.323262D+01

 Vector  231  Occ=0.000000D+00  E= 1.352936D+01

 Vector  232  Occ=0.000000D+00  E= 1.359230D+01

 Vector  233  Occ=0.000000D+00  E= 1.374827D+01

 Vector  234  Occ=0.000000D+00  E= 1.430483D+01

 Vector  235  Occ=0.000000D+00  E= 1.469701D+01

 Vector  236  Occ=0.000000D+00  E= 1.503577D+01

 Vector  237  Occ=0.000000D+00  E= 1.561965D+01

 Vector  238  Occ=0.000000D+00  E= 1.605707D+01

 Vector  239  Occ=0.000000D+00  E= 1.637466D+01

 Vector  240  Occ=0.000000D+00  E= 1.674185D+01

 Vector  241  Occ=0.000000D+00  E= 1.677144D+01

 Vector  242  Occ=0.000000D+00  E= 1.700282D+01

 Vector  243  Occ=0.000000D+00  E= 1.866749D+01

 Vector  244  Occ=0.000000D+00  E= 2.308255D+01

 Vector  245  Occ=0.000000D+00  E= 2.718041D+01

     Multipole analysis of the density
     ---------------------------------

     L   x y z        total         alpha         beta         nuclear
     -   - - -        -----         -----         ----         -------
     0   0 0 0     -0.000000    -16.000000    -16.000000     32.000000

     1   1 0 0      0.210570      0.355046      0.355046     -0.499522
     1   0 1 0      0.451381     -0.203878     -0.203878      0.859138
     1   0 0 1      0.637335     -2.669426     -2.669426      5.976187

     2   2 0 0    -16.329819    -16.569875    -16.569875     16.809931
     2   1 1 0     -0.777094    -15.476503    -15.476503     30.175912
     2   1 0 1      1.005363      1.668382      1.668382     -2.331400
     2   0 2 0    -17.024148    -36.124957    -36.124957     55.225765
     2   0 1 1      1.858885     -1.540401     -1.540401      4.939687

         Total DFT energy =   -280.755848885901
@   10    -280.75584889 -2.1D-07  0.00025  0.00010  0.00072  0.00148    292.4
@   10    -280.75584889 -2.1D-07  0.00025  0.00010  0.00072  0.00148    292.4

 Output coordinates in angstroms (scale by  1.889725989 to convert to a.u.)

  No.       Tag          Charge          X              Y              Z
 ---- ---------------- ---------- -------------- -------------- --------------
    1 N                    7.0000    -0.00855544    -0.00421307    -0.06557376
    2 O                    8.0000    -0.12938680    -0.06625416     1.37355706
    3 O                    8.0000     0.56027204     0.97869085    -0.49937267
    4 O                    8.0000    -0.49548320    -0.94750544    -0.62768498
    5 H                    1.0000     0.31233607     0.76467754     1.64948340

 Total times  cpu:      287.6s     wall:      292.4s
