 Output coordinates in angstroms (scale by  1.889725989 to convert to a.u.)

  No.       Tag          Charge          X              Y              Z
 ---- ---------------- ---------- -------------- -------------- --------------
    1 O                    8.0000     0.84297865    -0.08177103     0.09641654
    2 O                    8.0000     1.80806872     1.28670183    -2.58944976
    3 O                    8.0000     0.20092852     2.10147076     0.01435325
    4 O                    8.0000    -0.37069421     0.64124506    -2.73605095
    5 C                    6.0000     0.56338280     1.00065526    -0.51468751
    6 C                    6.0000     0.67737352     0.97422612    -2.09266257

         Total DFT energy =     -376.766638585503

                       DFT Final Molecular Orbital Analysis
                       ------------------------------------

 Vector    1  Occ=2.000000D+00  E=-1.885979D+01

 Vector  251  Occ=0.000000D+00  E= 5.970950D+00

 Vector  252  Occ=0.000000D+00  E= 5.970979D+00

 Vector  253  Occ=0.000000D+00  E= 5.986878D+00

 Vector  254  Occ=0.000000D+00  E= 6.034001D+00

 Vector  255  Occ=0.000000D+00  E= 6.034024D+00

 Vector  256  Occ=0.000000D+00  E= 6.036023D+00

 Vector  257  Occ=0.000000D+00  E= 6.063405D+00

 Vector  258  Occ=0.000000D+00  E= 6.147062D+00

 Vector  259  Occ=0.000000D+00  E= 6.157238D+00

 Vector  260  Occ=0.000000D+00  E= 6.157366D+00

 Vector  261  Occ=0.000000D+00  E= 6.157963D+00

 Vector  262  Occ=0.000000D+00  E= 6.260920D+00

 Vector  263  Occ=0.000000D+00  E= 6.260957D+00

 Vector  264  Occ=0.000000D+00  E= 6.298131D+00

 Vector  265  Occ=0.000000D+00  E= 6.315756D+00

 Vector  266  Occ=0.000000D+00  E= 6.315781D+00

 Vector  267  Occ=0.000000D+00  E= 6.322149D+00

 Vector  268  Occ=0.000000D+00  E= 6.337073D+00

 Vector  269  Occ=0.000000D+00  E= 6.394268D+00

 Vector  270  Occ=0.000000D+00  E= 6.399016D+00

 Vector  271  Occ=0.000000D+00  E= 6.443940D+00

 Vector  272  Occ=0.000000D+00  E= 6.452302D+00

 Vector  273  Occ=0.000000D+00  E= 6.509053D+00

 Vector  274  Occ=0.000000D+00  E= 6.509082D+00

 Vector  275  Occ=0.000000D+00  E= 6.519410D+00

 Vector  276  Occ=0.000000D+00  E= 6.555864D+00

 Vector  277  Occ=0.000000D+00  E= 6.555886D+00

 Vector  278  Occ=0.000000D+00  E= 6.582177D+00

 Vector  279  Occ=0.000000D+00  E= 6.677798D+00

 Vector  280  Occ=0.000000D+00  E= 6.705651D+00

 Vector  281  Occ=0.000000D+00  E= 6.705706D+00

 Vector  282  Occ=0.000000D+00  E= 6.878348D+00

 Vector  283  Occ=0.000000D+00  E= 6.878442D+00

 Vector  284  Occ=0.000000D+00  E= 6.917462D+00

 Vector  285  Occ=0.000000D+00  E= 6.965073D+00

 Vector  286  Occ=0.000000D+00  E= 6.965211D+00

 Vector  287  Occ=0.000000D+00  E= 7.005318D+00

 Vector  288  Occ=0.000000D+00  E= 7.048445D+00

 Vector  289  Occ=0.000000D+00  E= 7.060675D+00

 Vector  290  Occ=0.000000D+00  E= 7.077509D+00

 Vector  291  Occ=0.000000D+00  E= 7.077531D+00

 Vector  292  Occ=0.000000D+00  E= 7.087790D+00

 Vector  293  Occ=0.000000D+00  E= 7.348219D+00

 Vector  294  Occ=0.000000D+00  E= 7.377434D+00

 Vector  295  Occ=0.000000D+00  E= 7.453740D+00

 Vector  296  Occ=0.000000D+00  E= 7.508785D+00

 Vector  297  Occ=0.000000D+00  E= 7.509070D+00

 Vector  298  Occ=0.000000D+00  E= 7.556360D+00

 Vector  299  Occ=0.000000D+00  E= 7.773301D+00

 Vector  300  Occ=0.000000D+00  E= 7.773372D+00

 Vector  301  Occ=0.000000D+00  E= 8.111217D+00

 Vector  302  Occ=0.000000D+00  E= 8.111501D+00

 Vector  303  Occ=0.000000D+00  E= 8.322908D+00

 Vector  304  Occ=0.000000D+00  E= 8.332980D+00

 Vector  305  Occ=0.000000D+00  E= 9.436257D+00

 Vector  306  Occ=0.000000D+00  E= 9.791210D+00

 Vector  307  Occ=0.000000D+00  E= 9.791281D+00

 Vector  308  Occ=0.000000D+00  E= 9.845167D+00

 Vector  309  Occ=0.000000D+00  E= 1.253295D+01

 Vector  310  Occ=0.000000D+00  E= 1.253299D+01

 Vector  311  Occ=0.000000D+00  E= 1.349744D+01

 Vector  312  Occ=0.000000D+00  E= 1.349756D+01

 Vector  313  Occ=0.000000D+00  E= 1.354864D+01

 Vector  314  Occ=0.000000D+00  E= 1.361225D+01

 Vector  315  Occ=0.000000D+00  E= 1.388357D+01

 Vector  316  Occ=0.000000D+00  E= 1.388618D+01

 Vector  317  Occ=0.000000D+00  E= 1.440122D+01

 Vector  318  Occ=0.000000D+00  E= 1.446490D+01

 Vector  319  Occ=0.000000D+00  E= 1.446500D+01

 Vector  320  Occ=0.000000D+00  E= 1.509825D+01

 Vector  321  Occ=0.000000D+00  E= 1.623721D+01

 Vector  322  Occ=0.000000D+00  E= 1.650552D+01

 Vector  323  Occ=0.000000D+00  E= 1.650571D+01

 Vector  324  Occ=0.000000D+00  E= 1.652154D+01

 Vector  325  Occ=0.000000D+00  E= 1.757326D+01

 Vector  326  Occ=0.000000D+00  E= 1.766958D+01

 Vector  327  Occ=0.000000D+00  E= 1.767056D+01

 Vector  328  Occ=0.000000D+00  E= 1.799395D+01

 Vector  329  Occ=0.000000D+00  E= 2.804593D+01

 Vector  330  Occ=0.000000D+00  E= 2.808040D+01

     Multipole analysis of the density
     ---------------------------------

     L   x y z        total         alpha         beta         nuclear
     -   - - -        -----         -----         ----         -------
     0   0 0 0     -0.000000    -22.000000    -22.000000     44.000000

     1   1 0 0      0.000153    -25.789762    -25.789762     51.579677
     1   0 1 0      0.000736    -41.035468    -41.035468     82.071671
     1   0 0 1      0.000023     54.199193     54.199193   -108.398364

     2   2 0 0    -25.379607    -80.392730    -80.392730    135.405853
     2   1 1 0      0.000849    -47.991878    -47.991878     95.984606
     2   1 0 1     -0.060255     69.450128     69.450128   -138.960512
     2   0 2 0    -25.380367   -126.285501   -126.285501    227.190634
     2   0 1 1      0.011421     99.700735     99.700735   -199.390048

 Total times  cpu:       83.8s     wall:       88.2s
