 Output coordinates in angstroms (scale by  1.889725989 to convert to a.u.)

  No.       Tag          Charge          X              Y              Z
 ---- ---------------- ---------- -------------- -------------- --------------
    1 S                   16.0000    -0.00577748     0.00356329    -0.06051397
    2 O                    8.0000    -0.16964765     1.56209415    -0.01562276
    3 O                    8.0000    -1.43926407    -0.63077099    -0.01614626
    4 O                    8.0000     0.75332320    -0.43604245     1.23886098

         Total DFT energy =     -623.453771051590

                       DFT Final Molecular Orbital Analysis
                       ------------------------------------

 Vector    1  Occ=2.000000D+00  E=-8.833649D+01

 Vector  145  Occ=0.000000D+00  E= 2.776868D+00

 Vector  146  Occ=0.000000D+00  E= 2.876911D+00

 Vector  147  Occ=0.000000D+00  E= 2.877017D+00

 Vector  148  Occ=0.000000D+00  E= 2.946222D+00

 Vector  149  Occ=0.000000D+00  E= 2.977798D+00

 Vector  150  Occ=0.000000D+00  E= 2.977983D+00

 Vector  151  Occ=0.000000D+00  E= 3.020336D+00

 Vector  152  Occ=0.000000D+00  E= 3.077393D+00

 Vector  153  Occ=0.000000D+00  E= 3.077972D+00

 Vector  154  Occ=0.000000D+00  E= 3.223850D+00

 Vector  155  Occ=0.000000D+00  E= 3.554901D+00

 Vector  156  Occ=0.000000D+00  E= 3.554949D+00

 Vector  157  Occ=0.000000D+00  E= 4.321445D+00

 Vector  158  Occ=0.000000D+00  E= 4.511407D+00

 Vector  159  Occ=0.000000D+00  E= 4.511479D+00

 Vector  160  Occ=0.000000D+00  E= 4.768835D+00

 Vector  161  Occ=0.000000D+00  E= 4.918076D+00

 Vector  162  Occ=0.000000D+00  E= 4.918096D+00

 Vector  163  Occ=0.000000D+00  E= 4.958785D+00

 Vector  164  Occ=0.000000D+00  E= 4.959055D+00

 Vector  165  Occ=0.000000D+00  E= 4.962036D+00

 Vector  166  Occ=0.000000D+00  E= 4.962597D+00

 Vector  167  Occ=0.000000D+00  E= 5.261263D+00

 Vector  168  Occ=0.000000D+00  E= 5.262386D+00

 Vector  169  Occ=0.000000D+00  E= 5.377611D+00

 Vector  170  Occ=0.000000D+00  E= 5.506929D+00

 Vector  171  Occ=0.000000D+00  E= 5.507323D+00

 Vector  172  Occ=0.000000D+00  E= 5.906804D+00

 Vector  173  Occ=0.000000D+00  E= 5.906851D+00

 Vector  174  Occ=0.000000D+00  E= 5.961322D+00

 Vector  175  Occ=0.000000D+00  E= 5.965141D+00

 Vector  176  Occ=0.000000D+00  E= 5.965179D+00

 Vector  177  Occ=0.000000D+00  E= 5.974487D+00

 Vector  178  Occ=0.000000D+00  E= 6.001071D+00

 Vector  179  Occ=0.000000D+00  E= 6.001129D+00

 Vector  180  Occ=0.000000D+00  E= 6.074219D+00

 Vector  181  Occ=0.000000D+00  E= 6.155147D+00

 Vector  182  Occ=0.000000D+00  E= 6.155287D+00

 Vector  183  Occ=0.000000D+00  E= 6.185135D+00

 Vector  184  Occ=0.000000D+00  E= 6.214096D+00

 Vector  185  Occ=0.000000D+00  E= 6.215442D+00

 Vector  186  Occ=0.000000D+00  E= 6.215450D+00

 Vector  187  Occ=0.000000D+00  E= 6.296513D+00

 Vector  188  Occ=0.000000D+00  E= 6.375280D+00

 Vector  189  Occ=0.000000D+00  E= 6.384594D+00

 Vector  190  Occ=0.000000D+00  E= 6.384632D+00

 Vector  191  Occ=0.000000D+00  E= 6.396286D+00

 Vector  192  Occ=0.000000D+00  E= 6.396309D+00

 Vector  193  Occ=0.000000D+00  E= 6.428874D+00

 Vector  194  Occ=0.000000D+00  E= 6.429118D+00

 Vector  195  Occ=0.000000D+00  E= 6.435700D+00

 Vector  196  Occ=0.000000D+00  E= 6.451493D+00

 Vector  197  Occ=0.000000D+00  E= 6.451564D+00

 Vector  198  Occ=0.000000D+00  E= 6.504641D+00

 Vector  199  Occ=0.000000D+00  E= 6.566657D+00

 Vector  200  Occ=0.000000D+00  E= 6.649144D+00

 Vector  201  Occ=0.000000D+00  E= 6.670443D+00

 Vector  202  Occ=0.000000D+00  E= 6.670484D+00

 Vector  203  Occ=0.000000D+00  E= 6.742078D+00

 Vector  204  Occ=0.000000D+00  E= 7.086486D+00

 Vector  205  Occ=0.000000D+00  E= 7.086848D+00

 Vector  206  Occ=0.000000D+00  E= 7.313745D+00

 Vector  207  Occ=0.000000D+00  E= 7.520513D+00

 Vector  208  Occ=0.000000D+00  E= 7.520863D+00

 Vector  209  Occ=0.000000D+00  E= 1.068958D+01

 Vector  210  Occ=0.000000D+00  E= 1.186218D+01

 Vector  211  Occ=0.000000D+00  E= 1.186237D+01

 Vector  212  Occ=0.000000D+00  E= 1.314318D+01

 Vector  213  Occ=0.000000D+00  E= 1.314331D+01

 Vector  214  Occ=0.000000D+00  E= 1.318443D+01

 Vector  215  Occ=0.000000D+00  E= 1.319949D+01

 Vector  216  Occ=0.000000D+00  E= 1.357999D+01

 Vector  217  Occ=0.000000D+00  E= 1.358035D+01

 Vector  218  Occ=0.000000D+00  E= 1.447068D+01

 Vector  219  Occ=0.000000D+00  E= 1.525099D+01

 Vector  220  Occ=0.000000D+00  E= 1.551351D+01

 Vector  221  Occ=0.000000D+00  E= 1.551430D+01

 Vector  222  Occ=0.000000D+00  E= 1.670303D+01

 Vector  223  Occ=0.000000D+00  E= 1.670304D+01

 Vector  224  Occ=0.000000D+00  E= 1.681592D+01

     Multipole analysis of the density
     ---------------------------------

     L   x y z        total         alpha         beta         nuclear
     -   - - -        -----         -----         ----         -------
     0   0 0 0     -0.000000    -20.000000    -20.000000     40.000000

     1   1 0 0      0.315797      6.712553      6.712553    -13.109309
     1   0 1 0     -0.182312     -3.888805     -3.888805      7.595297
     1   0 0 1     -0.522748     -8.470827     -8.470827     16.418907

     2   2 0 0    -22.643487    -49.429628    -49.429628     76.215768
     2   1 1 0     -0.596412     -4.788010     -4.788010      8.979608
     2   1 0 1     -1.749867    -14.585693    -14.585693     27.421519
     2   0 2 0    -23.329142    -54.919710    -54.919710     86.510278
     2   0 1 1      1.011716      8.431433      8.431433    -15.851151

 Total times  cpu:       23.0s     wall:       25.3s
