         Total DFT energy =     -525.985687176533
@ Step       Energy      Delta E   Gmax     Grms     Xrms     Xmax   Walltime
@ ---- ---------------- -------- -------- -------- -------- -------- --------
@    0    -525.98568718  0.0D+00  0.02971  0.01011  0.00000  0.00000    123.0
         Total DFT energy =     -525.986868617485
         Total DFT energy =     -525.987804962615
@    1    -525.98780496 -2.1D-03  0.00738  0.00393  0.02560  0.06424    278.2
         Total DFT energy =     -525.988318512815
         Total DFT energy =   -525.988318512815
@    2    -525.98831851 -5.1D-04  0.00960  0.00315  0.01630  0.03945    352.2
         Total DFT energy =     -525.988032146025
         Total DFT energy =     -525.988406688299
@    3    -525.98840669 -8.8D-05  0.00789  0.00277  0.00587  0.01710    500.1
         Total DFT energy =     -525.988471236035
         Total DFT energy =     -525.988603849395
@    4    -525.98860385 -2.0D-04  0.00293  0.00131  0.00873  0.02338    628.2
         Total DFT energy =     -525.988667258198
         Total DFT energy =     -525.988671038658
@    5    -525.98867104 -6.7D-05  0.00082  0.00040  0.00744  0.01471    713.8
         Total DFT energy =     -525.988675297509
         Total DFT energy =   -525.988675297509
@    6    -525.98867530 -4.3D-06  0.00020  0.00010  0.00162  0.00272    762.6
         Total DFT energy =     -525.988675566941

                       DFT Final Molecular Orbital Analysis
                       ------------------------------------

 Vector    1  Occ=2.000000D+00  E=-2.412484D+01

 Vector  306  Occ=0.000000D+00  E= 7.454322D+00

 Vector  307  Occ=0.000000D+00  E= 7.470942D+00

 Vector  308  Occ=0.000000D+00  E= 7.669903D+00

 Vector  309  Occ=0.000000D+00  E= 7.762002D+00

 Vector  310  Occ=0.000000D+00  E= 7.902238D+00

 Vector  311  Occ=0.000000D+00  E= 7.954900D+00

 Vector  312  Occ=0.000000D+00  E= 8.094480D+00

 Vector  313  Occ=0.000000D+00  E= 8.140911D+00

 Vector  314  Occ=0.000000D+00  E= 8.177842D+00

 Vector  315  Occ=0.000000D+00  E= 8.291743D+00

 Vector  316  Occ=0.000000D+00  E= 8.430054D+00

 Vector  317  Occ=0.000000D+00  E= 8.448739D+00

 Vector  318  Occ=0.000000D+00  E= 8.466757D+00

 Vector  319  Occ=0.000000D+00  E= 8.475169D+00

 Vector  320  Occ=0.000000D+00  E= 8.556711D+00

 Vector  321  Occ=0.000000D+00  E= 8.572299D+00

 Vector  322  Occ=0.000000D+00  E= 8.604533D+00

 Vector  323  Occ=0.000000D+00  E= 8.615485D+00

 Vector  324  Occ=0.000000D+00  E= 8.662988D+00

 Vector  325  Occ=0.000000D+00  E= 8.728509D+00

 Vector  326  Occ=0.000000D+00  E= 8.749494D+00

 Vector  327  Occ=0.000000D+00  E= 8.777079D+00

 Vector  328  Occ=0.000000D+00  E= 8.815644D+00

 Vector  329  Occ=0.000000D+00  E= 8.818624D+00

 Vector  330  Occ=0.000000D+00  E= 8.826814D+00

 Vector  331  Occ=0.000000D+00  E= 8.828259D+00

 Vector  332  Occ=0.000000D+00  E= 8.838369D+00

 Vector  333  Occ=0.000000D+00  E= 8.851822D+00

 Vector  334  Occ=0.000000D+00  E= 8.898898D+00

 Vector  335  Occ=0.000000D+00  E= 8.934485D+00

 Vector  336  Occ=0.000000D+00  E= 8.947245D+00

 Vector  337  Occ=0.000000D+00  E= 8.969642D+00

 Vector  338  Occ=0.000000D+00  E= 8.983463D+00

 Vector  339  Occ=0.000000D+00  E= 9.028129D+00

 Vector  340  Occ=0.000000D+00  E= 9.039811D+00

 Vector  341  Occ=0.000000D+00  E= 9.060327D+00

 Vector  342  Occ=0.000000D+00  E= 9.084149D+00

 Vector  343  Occ=0.000000D+00  E= 9.104150D+00

 Vector  344  Occ=0.000000D+00  E= 9.183156D+00

 Vector  345  Occ=0.000000D+00  E= 9.203478D+00

 Vector  346  Occ=0.000000D+00  E= 9.213379D+00

 Vector  347  Occ=0.000000D+00  E= 9.242983D+00

 Vector  348  Occ=0.000000D+00  E= 9.278878D+00

 Vector  349  Occ=0.000000D+00  E= 9.386054D+00

 Vector  350  Occ=0.000000D+00  E= 9.401750D+00

 Vector  351  Occ=0.000000D+00  E= 9.655465D+00

 Vector  352  Occ=0.000000D+00  E= 9.732326D+00

 Vector  353  Occ=0.000000D+00  E= 9.749941D+00

 Vector  354  Occ=0.000000D+00  E= 1.003800D+01

 Vector  355  Occ=0.000000D+00  E= 1.024424D+01

 Vector  356  Occ=0.000000D+00  E= 1.028069D+01

 Vector  357  Occ=0.000000D+00  E= 1.030907D+01

 Vector  358  Occ=0.000000D+00  E= 1.042650D+01

 Vector  359  Occ=0.000000D+00  E= 1.359691D+01

 Vector  360  Occ=0.000000D+00  E= 1.379621D+01

 Vector  361  Occ=0.000000D+00  E= 1.422857D+01

 Vector  362  Occ=0.000000D+00  E= 1.456292D+01

 Vector  363  Occ=0.000000D+00  E= 1.504225D+01

 Vector  364  Occ=0.000000D+00  E= 1.519457D+01

 Vector  365  Occ=0.000000D+00  E= 1.600483D+01

 Vector  366  Occ=0.000000D+00  E= 1.623406D+01

 Vector  367  Occ=0.000000D+00  E= 1.678594D+01

 Vector  368  Occ=0.000000D+00  E= 1.688584D+01

 Vector  369  Occ=0.000000D+00  E= 1.729755D+01

 Vector  370  Occ=0.000000D+00  E= 1.816306D+01

 Vector  371  Occ=0.000000D+00  E= 1.852122D+01

 Vector  372  Occ=0.000000D+00  E= 1.860696D+01

 Vector  373  Occ=0.000000D+00  E= 1.886108D+01

 Vector  374  Occ=0.000000D+00  E= 1.896210D+01

 Vector  375  Occ=0.000000D+00  E= 1.906487D+01

 Vector  376  Occ=0.000000D+00  E= 1.932679D+01

 Vector  377  Occ=0.000000D+00  E= 1.941554D+01

 Vector  378  Occ=0.000000D+00  E= 2.133271D+01

 Vector  379  Occ=0.000000D+00  E= 2.165426D+01

 Vector  380  Occ=0.000000D+00  E= 2.193093D+01

 Vector  381  Occ=0.000000D+00  E= 2.352044D+01

 Vector  382  Occ=0.000000D+00  E= 2.379155D+01

 Vector  383  Occ=0.000000D+00  E= 2.409922D+01

 Vector  384  Occ=0.000000D+00  E= 2.756358D+01

 Vector  385  Occ=0.000000D+00  E= 2.916989D+01

     Multipole analysis of the density
     ---------------------------------

     L   x y z        total         alpha         beta         nuclear
     -   - - -        -----         -----         ----         -------
     0   0 0 0     -1.000000    -28.000000    -28.000000     55.000000

     1   1 0 0      0.001033      1.520301      1.520301     -3.039570
     1   0 1 0      0.054487      0.502263      0.502263     -0.950038
     1   0 0 1     -0.129183    -53.305122    -53.305122    106.481060

     2   2 0 0    -31.569233    -63.667032    -63.667032     95.764831
     2   1 1 0     -2.816875    -17.263787    -17.263787     31.710699
     2   1 0 1      0.227183      6.228329      6.228329    -12.229474
     2   0 2 0    -34.968983    -84.294945    -84.294945    133.620907
     2   0 1 1      0.003964      0.075390      0.075390     -0.146815

         Total DFT energy =   -525.988675566941
@    7    -525.98867557 -2.7D-07  0.00017  0.00008  0.00068  0.00117    799.3
@    7    -525.98867557 -2.7D-07  0.00017  0.00008  0.00068  0.00117    799.3

 Output coordinates in angstroms (scale by  1.889725989 to convert to a.u.)

  No.       Tag          Charge          X              Y              Z
 ---- ---------------- ---------- -------------- -------------- --------------
    1 C                    6.0000     0.00247296     0.00137558    -0.05190866
    2 C                    6.0000    -0.04450951     0.00557053     1.54184831
    3 O                    8.0000     0.58166064     0.98432911    -0.56322479
    4 O                    8.0000    -0.54679275    -1.01296272    -0.53798560
    5 F                    9.0000     0.39986057     1.15929019     2.13146371
    6 F                    9.0000    -1.31127490    -0.19281190     2.03821512
    7 F                    9.0000     0.72972599    -1.00151679     2.07669890

 Total times  cpu:      785.1s     wall:      799.4s
