 Output coordinates in angstroms (scale by  1.889725989 to convert to a.u.)

  No.       Tag          Charge          X              Y              Z
 ---- ---------------- ---------- -------------- -------------- --------------
    1 C                    6.0000     0.00147964    -0.00056247    -0.00221744
    2 O                    8.0000    -0.02132101     0.00899898     1.31415367
    3 O                    8.0000     0.58202992     0.98268641    -0.65773541
    4 O                    8.0000    -0.55625555    -0.99334191    -0.66312482

         Total DFT energy =     -263.497079527913

                       DFT Final Molecular Orbital Analysis
                       ------------------------------------

 Vector    1  Occ=2.000000D+00  E=-1.888075D+01

 Vector  141  Occ=0.000000D+00  E= 3.401499D+00

 Vector  142  Occ=0.000000D+00  E= 3.401530D+00

 Vector  143  Occ=0.000000D+00  E= 3.643222D+00

 Vector  144  Occ=0.000000D+00  E= 3.832663D+00

 Vector  145  Occ=0.000000D+00  E= 3.838191D+00

 Vector  146  Occ=0.000000D+00  E= 3.838192D+00

 Vector  147  Occ=0.000000D+00  E= 3.838295D+00

 Vector  148  Occ=0.000000D+00  E= 3.838299D+00

 Vector  149  Occ=0.000000D+00  E= 3.949927D+00

 Vector  150  Occ=0.000000D+00  E= 4.130119D+00

 Vector  151  Occ=0.000000D+00  E= 4.130152D+00

 Vector  152  Occ=0.000000D+00  E= 4.268707D+00

 Vector  153  Occ=0.000000D+00  E= 4.743869D+00

 Vector  154  Occ=0.000000D+00  E= 4.935776D+00

 Vector  155  Occ=0.000000D+00  E= 4.963104D+00

 Vector  156  Occ=0.000000D+00  E= 4.963111D+00

 Vector  157  Occ=0.000000D+00  E= 4.982326D+00

 Vector  158  Occ=0.000000D+00  E= 4.982341D+00

 Vector  159  Occ=0.000000D+00  E= 5.078833D+00

 Vector  160  Occ=0.000000D+00  E= 5.078880D+00

 Vector  161  Occ=0.000000D+00  E= 5.179761D+00

 Vector  162  Occ=0.000000D+00  E= 5.638522D+00

 Vector  163  Occ=0.000000D+00  E= 5.922922D+00

 Vector  164  Occ=0.000000D+00  E= 5.931232D+00

 Vector  165  Occ=0.000000D+00  E= 5.931239D+00

 Vector  166  Occ=0.000000D+00  E= 5.935505D+00

 Vector  167  Occ=0.000000D+00  E= 5.935522D+00

 Vector  168  Occ=0.000000D+00  E= 5.982829D+00

 Vector  169  Occ=0.000000D+00  E= 6.011296D+00

 Vector  170  Occ=0.000000D+00  E= 6.011305D+00

 Vector  171  Occ=0.000000D+00  E= 6.096010D+00

 Vector  172  Occ=0.000000D+00  E= 6.174193D+00

 Vector  173  Occ=0.000000D+00  E= 6.174197D+00

 Vector  174  Occ=0.000000D+00  E= 6.185817D+00

 Vector  175  Occ=0.000000D+00  E= 6.261233D+00

 Vector  176  Occ=0.000000D+00  E= 6.261238D+00

 Vector  177  Occ=0.000000D+00  E= 6.332093D+00

 Vector  178  Occ=0.000000D+00  E= 6.332103D+00

 Vector  179  Occ=0.000000D+00  E= 6.339121D+00

 Vector  180  Occ=0.000000D+00  E= 6.341746D+00

 Vector  181  Occ=0.000000D+00  E= 6.420468D+00

 Vector  182  Occ=0.000000D+00  E= 6.420470D+00

 Vector  183  Occ=0.000000D+00  E= 6.476886D+00

 Vector  184  Occ=0.000000D+00  E= 6.476887D+00

 Vector  185  Occ=0.000000D+00  E= 6.543814D+00

 Vector  186  Occ=0.000000D+00  E= 6.543815D+00

 Vector  187  Occ=0.000000D+00  E= 6.597370D+00

 Vector  188  Occ=0.000000D+00  E= 6.776118D+00

 Vector  189  Occ=0.000000D+00  E= 6.906954D+00

 Vector  190  Occ=0.000000D+00  E= 6.906982D+00

 Vector  191  Occ=0.000000D+00  E= 6.922139D+00

 Vector  192  Occ=0.000000D+00  E= 6.922163D+00

 Vector  193  Occ=0.000000D+00  E= 6.978596D+00

 Vector  194  Occ=0.000000D+00  E= 7.050831D+00

 Vector  195  Occ=0.000000D+00  E= 7.272752D+00

 Vector  196  Occ=0.000000D+00  E= 7.370943D+00

 Vector  197  Occ=0.000000D+00  E= 7.370944D+00

 Vector  198  Occ=0.000000D+00  E= 7.491334D+00

 Vector  199  Occ=0.000000D+00  E= 7.517044D+00

 Vector  200  Occ=0.000000D+00  E= 7.697180D+00

 Vector  201  Occ=0.000000D+00  E= 7.697196D+00

 Vector  202  Occ=0.000000D+00  E= 8.339338D+00

 Vector  203  Occ=0.000000D+00  E= 9.352607D+00

 Vector  204  Occ=0.000000D+00  E= 9.352715D+00

 Vector  205  Occ=0.000000D+00  E= 1.192148D+01

 Vector  206  Occ=0.000000D+00  E= 1.192151D+01

 Vector  207  Occ=0.000000D+00  E= 1.325944D+01

 Vector  208  Occ=0.000000D+00  E= 1.325950D+01

 Vector  209  Occ=0.000000D+00  E= 1.327016D+01

 Vector  210  Occ=0.000000D+00  E= 1.342973D+01

 Vector  211  Occ=0.000000D+00  E= 1.352963D+01

 Vector  212  Occ=0.000000D+00  E= 1.411586D+01

 Vector  213  Occ=0.000000D+00  E= 1.411588D+01

 Vector  214  Occ=0.000000D+00  E= 1.568873D+01

 Vector  215  Occ=0.000000D+00  E= 1.603093D+01

 Vector  216  Occ=0.000000D+00  E= 1.603100D+01

 Vector  217  Occ=0.000000D+00  E= 1.673187D+01

 Vector  218  Occ=0.000000D+00  E= 1.687628D+01

 Vector  219  Occ=0.000000D+00  E= 1.687630D+01

 Vector  220  Occ=0.000000D+00  E= 2.415026D+01

     Multipole analysis of the density
     ---------------------------------

     L   x y z        total         alpha         beta         nuclear
     -   - - -        -----         -----         ----         -------
     0   0 0 0     -0.000000    -15.000000    -15.000000     30.000000

     1   1 0 0      0.000004     -0.042049     -0.042049      0.084102
     1   0 1 0      0.000007      0.015714      0.015714     -0.031420
     1   0 0 1      0.000055      0.063293      0.063293     -0.126531

     2   2 0 0    -15.868327    -17.199437    -17.199437     18.530547
     2   1 1 0     -0.599391    -16.359662    -16.359662     32.119934
     2   1 0 1      0.022357      0.610780      0.610780     -1.199203
     2   0 2 0    -16.563434    -36.171471    -36.171471     55.779509
     2   0 1 1     -0.012916     -0.351980     -0.351980      0.691044

 Total times  cpu:       19.4s     wall:       20.0s
