         Total DFT energy =     -228.366496599546
@ Step       Energy      Delta E   Gmax     Grms     Xrms     Xmax   Walltime
@ ---- ---------------- -------- -------- -------- -------- -------- --------
@    0    -228.36649660  0.0D+00  0.03740  0.00958  0.00000  0.00000     70.9
         Total DFT energy =     -228.367458322755
         Total DFT energy =     -228.367472016305
@    1    -228.36747202 -9.8D-04  0.01155  0.00388  0.01435  0.05132    126.4
         Total DFT energy =     -228.364747963194
         Total DFT energy =     -228.367692409868
@    2    -228.36769241 -2.2D-04  0.00894  0.00307  0.00895  0.02920    199.8
         Total DFT energy =     -228.367894337213
         Total DFT energy =     -228.368134719672
@    3    -228.36813472 -4.4D-04  0.00626  0.00252  0.01617  0.03673    256.9
         Total DFT energy =     -228.368313407979
         Total DFT energy =     -228.368329511439
@    4    -228.36832951 -1.9D-04  0.00133  0.00054  0.01102  0.02415    297.8
         Total DFT energy =     -228.368338501493
         Total DFT energy =     -228.368339018107
@    5    -228.36833902 -9.5D-06  0.00017  0.00009  0.00283  0.00677    328.0
         Total DFT energy =     -228.368339078684

                       DFT Final Molecular Orbital Analysis
                       ------------------------------------

 Vector    1  Occ=2.000000D+00  E=-1.849596D+01

 Vector  216  Occ=0.000000D+00  E= 4.391845D+00

 Vector  217  Occ=0.000000D+00  E= 4.438714D+00

 Vector  218  Occ=0.000000D+00  E= 4.459916D+00

 Vector  219  Occ=0.000000D+00  E= 4.592560D+00

 Vector  220  Occ=0.000000D+00  E= 4.606827D+00

 Vector  221  Occ=0.000000D+00  E= 4.614164D+00

 Vector  222  Occ=0.000000D+00  E= 4.669355D+00

 Vector  223  Occ=0.000000D+00  E= 4.695228D+00

 Vector  224  Occ=0.000000D+00  E= 4.710804D+00

 Vector  225  Occ=0.000000D+00  E= 4.857870D+00

 Vector  226  Occ=0.000000D+00  E= 4.866766D+00

 Vector  227  Occ=0.000000D+00  E= 4.900581D+00

 Vector  228  Occ=0.000000D+00  E= 5.030803D+00

 Vector  229  Occ=0.000000D+00  E= 5.079999D+00

 Vector  230  Occ=0.000000D+00  E= 5.148722D+00

 Vector  231  Occ=0.000000D+00  E= 5.295284D+00

 Vector  232  Occ=0.000000D+00  E= 5.318959D+00

 Vector  233  Occ=0.000000D+00  E= 5.345112D+00

 Vector  234  Occ=0.000000D+00  E= 5.355621D+00

 Vector  235  Occ=0.000000D+00  E= 5.388576D+00

 Vector  236  Occ=0.000000D+00  E= 5.436612D+00

 Vector  237  Occ=0.000000D+00  E= 5.456964D+00

 Vector  238  Occ=0.000000D+00  E= 5.529001D+00

 Vector  239  Occ=0.000000D+00  E= 5.569528D+00

 Vector  240  Occ=0.000000D+00  E= 5.627489D+00

 Vector  241  Occ=0.000000D+00  E= 5.698980D+00

 Vector  242  Occ=0.000000D+00  E= 5.735569D+00

 Vector  243  Occ=0.000000D+00  E= 5.875994D+00

 Vector  244  Occ=0.000000D+00  E= 5.918811D+00

 Vector  245  Occ=0.000000D+00  E= 6.289632D+00

 Vector  246  Occ=0.000000D+00  E= 6.328771D+00

 Vector  247  Occ=0.000000D+00  E= 6.354877D+00

 Vector  248  Occ=0.000000D+00  E= 6.383096D+00

 Vector  249  Occ=0.000000D+00  E= 6.479795D+00

 Vector  250  Occ=0.000000D+00  E= 6.516038D+00

 Vector  251  Occ=0.000000D+00  E= 6.563009D+00

 Vector  252  Occ=0.000000D+00  E= 6.589472D+00

 Vector  253  Occ=0.000000D+00  E= 6.637702D+00

 Vector  254  Occ=0.000000D+00  E= 6.662957D+00

 Vector  255  Occ=0.000000D+00  E= 6.685671D+00

 Vector  256  Occ=0.000000D+00  E= 6.745539D+00

 Vector  257  Occ=0.000000D+00  E= 6.785465D+00

 Vector  258  Occ=0.000000D+00  E= 6.823514D+00

 Vector  259  Occ=0.000000D+00  E= 6.843754D+00

 Vector  260  Occ=0.000000D+00  E= 6.900145D+00

 Vector  261  Occ=0.000000D+00  E= 6.925709D+00

 Vector  262  Occ=0.000000D+00  E= 7.062512D+00

 Vector  263  Occ=0.000000D+00  E= 7.118055D+00

 Vector  264  Occ=0.000000D+00  E= 7.210897D+00

 Vector  265  Occ=0.000000D+00  E= 7.242554D+00

 Vector  266  Occ=0.000000D+00  E= 7.344093D+00

 Vector  267  Occ=0.000000D+00  E= 7.374213D+00

 Vector  268  Occ=0.000000D+00  E= 7.400975D+00

 Vector  269  Occ=0.000000D+00  E= 7.455354D+00

 Vector  270  Occ=0.000000D+00  E= 7.491199D+00

 Vector  271  Occ=0.000000D+00  E= 7.570728D+00

 Vector  272  Occ=0.000000D+00  E= 7.737691D+00

 Vector  273  Occ=0.000000D+00  E= 7.810925D+00

 Vector  274  Occ=0.000000D+00  E= 7.942559D+00

 Vector  275  Occ=0.000000D+00  E= 8.132847D+00

 Vector  276  Occ=0.000000D+00  E= 8.190477D+00

 Vector  277  Occ=0.000000D+00  E= 8.588837D+00

 Vector  278  Occ=0.000000D+00  E= 8.657956D+00

 Vector  279  Occ=0.000000D+00  E= 9.854224D+00

 Vector  280  Occ=0.000000D+00  E= 9.995632D+00

 Vector  281  Occ=0.000000D+00  E= 1.014901D+01

 Vector  282  Occ=0.000000D+00  E= 1.018816D+01

 Vector  283  Occ=0.000000D+00  E= 1.030502D+01

 Vector  284  Occ=0.000000D+00  E= 1.319975D+01

 Vector  285  Occ=0.000000D+00  E= 1.380276D+01

 Vector  286  Occ=0.000000D+00  E= 1.427090D+01

 Vector  287  Occ=0.000000D+00  E= 1.448740D+01

 Vector  288  Occ=0.000000D+00  E= 1.507748D+01

 Vector  289  Occ=0.000000D+00  E= 1.535316D+01

 Vector  290  Occ=0.000000D+00  E= 1.678787D+01

 Vector  291  Occ=0.000000D+00  E= 1.689972D+01

 Vector  292  Occ=0.000000D+00  E= 1.839393D+01

 Vector  293  Occ=0.000000D+00  E= 1.912262D+01

 Vector  294  Occ=0.000000D+00  E= 2.758549D+01

 Vector  295  Occ=0.000000D+00  E= 3.102262D+01

     Multipole analysis of the density
     ---------------------------------

     L   x y z        total         alpha         beta         nuclear
     -   - - -        -----         -----         ----         -------
     0   0 0 0     -1.000000    -16.000000    -16.000000     31.000000

     1   1 0 0     -0.032306      0.115697      0.115697     -0.263699
     1   0 1 0      0.026073      0.051304      0.051304     -0.076534
     1   0 0 1      1.005461     -4.251766     -4.251766      9.508992

     2   2 0 0    -21.425930    -22.592862    -22.592862     23.759793
     2   1 1 0     -3.246469    -17.585652    -17.585652     31.924834
     2   1 0 1      0.176993      1.867524      1.867524     -3.558056
     2   0 2 0    -25.345516    -43.776242    -43.776242     62.206968
     2   0 1 1     -0.085415     -0.502034     -0.502034      0.918652

         Total DFT energy =   -228.368339078684
@    6    -228.36833908 -6.1D-08  0.00009  0.00004  0.00043  0.00106    344.4
@    6    -228.36833908 -6.1D-08  0.00009  0.00004  0.00043  0.00106    344.4

 Output coordinates in angstroms (scale by  1.889725989 to convert to a.u.)

  No.       Tag          Charge          X              Y              Z
 ---- ---------------- ---------- -------------- -------------- --------------
    1 C                    6.0000     0.00130722     0.00235869    -0.04882882
    2 C                    6.0000    -0.04852352     0.02203404     1.51773523
    3 O                    8.0000     0.58172128     0.98117128    -0.59954603
    4 O                    8.0000    -0.54079798    -1.00616352    -0.58570192
    5 H                    1.0000     0.31095568     0.97819423     1.92599588
    6 H                    1.0000    -1.07596282    -0.17134952     1.86516931
    7 H                    1.0000     0.58137513    -0.79376319     1.90932234

 Total times  cpu:      336.7s     wall:      344.4s
