         Total DFT energy =      -75.755622078715
@ Step       Energy      Delta E   Gmax     Grms     Xrms     Xmax   Walltime
@ ---- ---------------- -------- -------- -------- -------- -------- --------
@    0     -75.75562208  0.0D+00  0.00997  0.00645  0.00000  0.00000      1.4
         Total DFT energy =      -75.755744168606
         Total DFT energy =      -75.755761106803
@    1     -75.75576111 -1.4D-04  0.00005  0.00004  0.00710  0.01097      2.4
         Total DFT energy =      -75.755761309009

                       DFT Final Molecular Orbital Analysis
                       ------------------------------------

 Vector    1  Occ=2.000000D+00  E=-1.840731D+01

 Vector    2  Occ=2.000000D+00  E=-5.183522D-01

 Vector    3  Occ=2.000000D+00  E=-5.392876D-02

 Vector    4  Occ=2.000000D+00  E= 7.977656D-02

 Vector    5  Occ=2.000000D+00  E= 7.977656D-02

 Vector    6  Occ=0.000000D+00  E= 1.343493D-01

 Vector    7  Occ=0.000000D+00  E= 2.409762D-01

 Vector    8  Occ=0.000000D+00  E= 2.731837D-01

 Vector    9  Occ=0.000000D+00  E= 2.731837D-01

 Vector   10  Occ=0.000000D+00  E= 2.834974D-01

 Vector   11  Occ=0.000000D+00  E= 3.496370D-01

 Vector   12  Occ=0.000000D+00  E= 3.865204D-01

 Vector   13  Occ=0.000000D+00  E= 3.865204D-01

 Vector   14  Occ=0.000000D+00  E= 5.127212D-01

 Vector   15  Occ=0.000000D+00  E= 6.176336D-01

 Vector   16  Occ=0.000000D+00  E= 7.589122D-01

 Vector   17  Occ=0.000000D+00  E= 7.589133D-01

 Vector   18  Occ=0.000000D+00  E= 8.067962D-01

 Vector   19  Occ=0.000000D+00  E= 8.143451D-01

 Vector   20  Occ=0.000000D+00  E= 8.143451D-01

 Vector   21  Occ=0.000000D+00  E= 8.325192D-01

 Vector   22  Occ=0.000000D+00  E= 8.457861D-01

 Vector   23  Occ=0.000000D+00  E= 8.457861D-01

 Vector   24  Occ=0.000000D+00  E= 1.045364D+00

 Vector   25  Occ=0.000000D+00  E= 1.045364D+00

 Vector   26  Occ=0.000000D+00  E= 1.045634D+00

 Vector   27  Occ=0.000000D+00  E= 1.045635D+00

 Vector   28  Occ=0.000000D+00  E= 1.063218D+00

 Vector   29  Occ=0.000000D+00  E= 1.226665D+00

 Vector   30  Occ=0.000000D+00  E= 1.284802D+00

 Vector   31  Occ=0.000000D+00  E= 1.575511D+00

 Vector   32  Occ=0.000000D+00  E= 1.575511D+00

 Vector   33  Occ=0.000000D+00  E= 1.808421D+00

 Vector   34  Occ=0.000000D+00  E= 2.021471D+00

 Vector   35  Occ=0.000000D+00  E= 2.021471D+00

 Vector   36  Occ=0.000000D+00  E= 2.090900D+00

 Vector   37  Occ=0.000000D+00  E= 2.099196D+00

 Vector   38  Occ=0.000000D+00  E= 2.099196D+00

 Vector   39  Occ=0.000000D+00  E= 2.151516D+00

 Vector   40  Occ=0.000000D+00  E= 2.151516D+00

 Vector   41  Occ=0.000000D+00  E= 2.300716D+00

 Vector   42  Occ=0.000000D+00  E= 2.300716D+00

 Vector   43  Occ=0.000000D+00  E= 2.357564D+00

 Vector   44  Occ=0.000000D+00  E= 2.357568D+00

 Vector   45  Occ=0.000000D+00  E= 2.379169D+00

 Vector   46  Occ=0.000000D+00  E= 2.642604D+00

 Vector   47  Occ=0.000000D+00  E= 2.824536D+00

 Vector   48  Occ=0.000000D+00  E= 2.824536D+00

 Vector   49  Occ=0.000000D+00  E= 2.980994D+00

 Vector   50  Occ=0.000000D+00  E= 3.832867D+00

 Vector   51  Occ=0.000000D+00  E= 3.986655D+00

 Vector   52  Occ=0.000000D+00  E= 4.008950D+00

 Vector   53  Occ=0.000000D+00  E= 4.008950D+00

 Vector   54  Occ=0.000000D+00  E= 4.247934D+00

 Vector   55  Occ=0.000000D+00  E= 4.247934D+00

 Vector   56  Occ=0.000000D+00  E= 4.863298D+00

 Vector   57  Occ=0.000000D+00  E= 4.903969D+00

 Vector   58  Occ=0.000000D+00  E= 4.903969D+00

 Vector   59  Occ=0.000000D+00  E= 5.362332D+00

 Vector   60  Occ=0.000000D+00  E= 5.362332D+00

 Vector   61  Occ=0.000000D+00  E= 5.465309D+00

 Vector   62  Occ=0.000000D+00  E= 5.847715D+00

 Vector   63  Occ=0.000000D+00  E= 6.288935D+00

 Vector   64  Occ=0.000000D+00  E= 6.288935D+00

 Vector   65  Occ=0.000000D+00  E= 6.430338D+00

 Vector   66  Occ=0.000000D+00  E= 6.430339D+00

 Vector   67  Occ=0.000000D+00  E= 6.664006D+00

 Vector   68  Occ=0.000000D+00  E= 6.763591D+00

 Vector   69  Occ=0.000000D+00  E= 6.763592D+00

 Vector   70  Occ=0.000000D+00  E= 6.961937D+00

 Vector   71  Occ=0.000000D+00  E= 6.961937D+00

 Vector   72  Occ=0.000000D+00  E= 6.992124D+00

 Vector   73  Occ=0.000000D+00  E= 6.992124D+00

 Vector   74  Occ=0.000000D+00  E= 7.878524D+00

 Vector   75  Occ=0.000000D+00  E= 8.608040D+00

 Vector   76  Occ=0.000000D+00  E= 1.309675D+01

 Vector   77  Occ=0.000000D+00  E= 1.309675D+01

 Vector   78  Occ=0.000000D+00  E= 1.318027D+01

 Vector   79  Occ=0.000000D+00  E= 1.470403D+01

 Vector   80  Occ=0.000000D+00  E= 1.698143D+01

     Multipole analysis of the density
     ---------------------------------

     L   x y z        total         alpha         beta         nuclear
     -   - - -        -----         -----         ----         -------
     0   0 0 0     -1.000000     -5.000000     -5.000000      9.000000

     1   1 0 0     -0.263009      0.738959      0.738959     -1.740927
     1   0 1 0      0.077695     -0.218295     -0.218295      0.514285
     1   0 0 1      0.108188     -0.303970     -0.303970      0.716127

     2   2 0 0     -6.768538     -4.752059     -4.752059      2.735581
     2   1 1 0     -0.512075      0.148020      0.148020     -0.808115
     2   1 0 1     -0.713049      0.206114      0.206114     -1.125276
     2   0 2 0     -8.350710     -4.294717     -4.294717      0.238724
     2   0 1 1      0.210641     -0.060888     -0.060888      0.332417

         Total DFT energy =    -75.755761309009
@    2     -75.75576131 -2.0D-07  0.00000  0.00000  0.00004  0.00006      2.8
@    2     -75.75576131 -2.0D-07  0.00000  0.00000  0.00004  0.00006      2.8

 Output coordinates in angstroms (scale by  1.889725989 to convert to a.u.)

  No.       Tag          Charge          X              Y              Z
 ---- ---------------- ---------- -------------- -------------- --------------
    1 O                    8.0000    -0.00577172     0.00170502     0.00237419
    2 H                    1.0000    -0.87508528     0.25850798     0.35996481

 Total times  cpu:        2.4s     wall:        2.8s
