 Output coordinates in angstroms (scale by  1.889725989 to convert to a.u.)

  No.       Tag          Charge          X              Y              Z
 ---- ---------------- ---------- -------------- -------------- --------------
    1 Cl                  17.0000     0.00203513    -0.00197838    -0.01423133
    2 O                    8.0000     1.22609484     0.69198904    -0.51809403
    3 O                    8.0000    -1.21444318     0.72345215    -0.49186727
    4 O                    8.0000    -0.02183555    -1.40565104    -0.52719717
    5 O                    8.0000     0.01760977    -0.01787278     1.48030080

         Total DFT energy =     -760.395486210200

                    DFT Final Alpha Molecular Orbital Analysis
                    ------------------------------------------

 Vector    1  Occ=1.000000D+00  E=-1.011068D+02

 Vector  200  Occ=0.000000D+00  E= 5.109575D+00

 Vector  201  Occ=0.000000D+00  E= 5.109592D+00

 Vector  202  Occ=0.000000D+00  E= 5.273186D+00

 Vector  203  Occ=0.000000D+00  E= 5.630266D+00

 Vector  204  Occ=0.000000D+00  E= 5.723750D+00

 Vector  205  Occ=0.000000D+00  E= 5.723817D+00

 Vector  206  Occ=0.000000D+00  E= 5.723987D+00

 Vector  207  Occ=0.000000D+00  E= 5.898473D+00

 Vector  208  Occ=0.000000D+00  E= 5.898747D+00

 Vector  209  Occ=0.000000D+00  E= 5.898777D+00

 Vector  210  Occ=0.000000D+00  E= 5.925182D+00

 Vector  211  Occ=0.000000D+00  E= 5.925298D+00

 Vector  212  Occ=0.000000D+00  E= 5.925566D+00

 Vector  213  Occ=0.000000D+00  E= 5.961267D+00

 Vector  214  Occ=0.000000D+00  E= 5.961747D+00

 Vector  215  Occ=0.000000D+00  E= 5.976537D+00

 Vector  216  Occ=0.000000D+00  E= 5.994103D+00

 Vector  217  Occ=0.000000D+00  E= 5.994127D+00

 Vector  218  Occ=0.000000D+00  E= 5.994428D+00

 Vector  219  Occ=0.000000D+00  E= 6.079314D+00

 Vector  220  Occ=0.000000D+00  E= 6.172737D+00

 Vector  221  Occ=0.000000D+00  E= 6.174265D+00

 Vector  222  Occ=0.000000D+00  E= 6.186909D+00

 Vector  223  Occ=0.000000D+00  E= 6.186940D+00

 Vector  224  Occ=0.000000D+00  E= 6.187307D+00

 Vector  225  Occ=0.000000D+00  E= 6.207801D+00

 Vector  226  Occ=0.000000D+00  E= 6.207866D+00

 Vector  227  Occ=0.000000D+00  E= 6.208059D+00

 Vector  228  Occ=0.000000D+00  E= 6.383106D+00

 Vector  229  Occ=0.000000D+00  E= 6.383516D+00

 Vector  230  Occ=0.000000D+00  E= 6.383552D+00

 Vector  231  Occ=0.000000D+00  E= 6.389212D+00

 Vector  232  Occ=0.000000D+00  E= 6.389608D+00

 Vector  233  Occ=0.000000D+00  E= 6.405780D+00

 Vector  234  Occ=0.000000D+00  E= 6.407123D+00

 Vector  235  Occ=0.000000D+00  E= 6.407210D+00

 Vector  236  Occ=0.000000D+00  E= 6.499306D+00

 Vector  237  Occ=0.000000D+00  E= 6.499335D+00

 Vector  238  Occ=0.000000D+00  E= 6.500311D+00

 Vector  239  Occ=0.000000D+00  E= 6.506797D+00

 Vector  240  Occ=0.000000D+00  E= 6.580850D+00

 Vector  241  Occ=0.000000D+00  E= 6.582310D+00

 Vector  242  Occ=0.000000D+00  E= 6.582382D+00

 Vector  243  Occ=0.000000D+00  E= 6.792711D+00

 Vector  244  Occ=0.000000D+00  E= 6.792926D+00

 Vector  245  Occ=0.000000D+00  E= 6.796847D+00

 Vector  246  Occ=0.000000D+00  E= 6.950637D+00

 Vector  247  Occ=0.000000D+00  E= 6.950765D+00

 Vector  248  Occ=0.000000D+00  E= 6.950904D+00

 Vector  249  Occ=0.000000D+00  E= 7.260063D+00

 Vector  250  Occ=0.000000D+00  E= 7.260247D+00

 Vector  251  Occ=0.000000D+00  E= 7.262235D+00

 Vector  252  Occ=0.000000D+00  E= 7.262382D+00

 Vector  253  Occ=0.000000D+00  E= 7.265400D+00

 Vector  254  Occ=0.000000D+00  E= 7.383582D+00

 Vector  255  Occ=0.000000D+00  E= 7.782505D+00

 Vector  256  Occ=0.000000D+00  E= 7.783407D+00

 Vector  257  Occ=0.000000D+00  E= 7.783524D+00

 Vector  258  Occ=0.000000D+00  E= 8.872063D+00

 Vector  259  Occ=0.000000D+00  E= 1.238918D+01

 Vector  260  Occ=0.000000D+00  E= 1.238954D+01

 Vector  261  Occ=0.000000D+00  E= 1.239028D+01

 Vector  262  Occ=0.000000D+00  E= 1.321126D+01

 Vector  263  Occ=0.000000D+00  E= 1.321134D+01

 Vector  264  Occ=0.000000D+00  E= 1.321347D+01

 Vector  265  Occ=0.000000D+00  E= 1.364544D+01

 Vector  266  Occ=0.000000D+00  E= 1.379269D+01

 Vector  267  Occ=0.000000D+00  E= 1.379473D+01

 Vector  268  Occ=0.000000D+00  E= 1.379479D+01

 Vector  269  Occ=0.000000D+00  E= 1.442517D+01

 Vector  270  Occ=0.000000D+00  E= 1.442796D+01

 Vector  271  Occ=0.000000D+00  E= 1.523116D+01

 Vector  272  Occ=0.000000D+00  E= 1.642021D+01

 Vector  273  Occ=0.000000D+00  E= 1.642023D+01

 Vector  274  Occ=0.000000D+00  E= 1.642033D+01

 Vector  275  Occ=0.000000D+00  E= 1.687895D+01

 Vector  276  Occ=0.000000D+00  E= 1.704146D+01

 Vector  277  Occ=0.000000D+00  E= 1.704173D+01

 Vector  278  Occ=0.000000D+00  E= 1.704207D+01

 Vector  279  Occ=0.000000D+00  E= 3.251061D+01

     Multipole analysis of the density
     ---------------------------------

     L   x y z        total         alpha         beta         nuclear
     -   - - -        -----         -----         ----         -------
     0   0 0 0     -0.000000    -25.000000    -24.000000     49.000000

     1   1 0 0     -0.000190     -0.089582     -0.088250      0.177642
     1   0 1 0     -0.000833      0.095151      0.089764     -0.185748
     1   0 0 1      0.000089      0.671914      0.644925     -1.316750

     2   2 0 0    -25.826448    -57.071930    -53.859451     85.104933
     2   1 1 0      0.050999     -0.018784      0.063426      0.006357
     2   1 0 1      0.074931     -0.019235      0.104728     -0.010562
     2   0 2 0    -25.765765    -57.082881    -53.771760     85.088876
     2   0 1 1     -0.042723      0.009314     -0.060612      0.008575

 Total times  cpu:      135.9s     wall:      137.8s
