 Output coordinates in angstroms (scale by  1.889725989 to convert to a.u.)

  No.       Tag          Charge          X              Y              Z
 ---- ---------------- ---------- -------------- -------------- --------------
    1 C                    6.0000     0.00147964    -0.00056247    -0.00221744
    2 O                    8.0000    -0.02132101     0.00899898     1.31415367
    3 O                    8.0000     0.58202992     0.98268641    -0.65773541
    4 O                    8.0000    -0.55625555    -0.99334191    -0.66312482

         Total DFT energy =     -263.667412858015

                    DFT Final Alpha Molecular Orbital Analysis
                    ------------------------------------------

 Vector    1  Occ=1.000000D+00  E=-1.855913D+01

 Vector  141  Occ=0.000000D+00  E= 3.678644D+00

 Vector  142  Occ=0.000000D+00  E= 3.678671D+00

 Vector  143  Occ=0.000000D+00  E= 3.924915D+00

 Vector  144  Occ=0.000000D+00  E= 4.111727D+00

 Vector  145  Occ=0.000000D+00  E= 4.118512D+00

 Vector  146  Occ=0.000000D+00  E= 4.118514D+00

 Vector  147  Occ=0.000000D+00  E= 4.119157D+00

 Vector  148  Occ=0.000000D+00  E= 4.119178D+00

 Vector  149  Occ=0.000000D+00  E= 4.216454D+00

 Vector  150  Occ=0.000000D+00  E= 4.402854D+00

 Vector  151  Occ=0.000000D+00  E= 4.402885D+00

 Vector  152  Occ=0.000000D+00  E= 4.562764D+00

 Vector  153  Occ=0.000000D+00  E= 5.017855D+00

 Vector  154  Occ=0.000000D+00  E= 5.226850D+00

 Vector  155  Occ=0.000000D+00  E= 5.255825D+00

 Vector  156  Occ=0.000000D+00  E= 5.255832D+00

 Vector  157  Occ=0.000000D+00  E= 5.265843D+00

 Vector  158  Occ=0.000000D+00  E= 5.265864D+00

 Vector  159  Occ=0.000000D+00  E= 5.360476D+00

 Vector  160  Occ=0.000000D+00  E= 5.360489D+00

 Vector  161  Occ=0.000000D+00  E= 5.498995D+00

 Vector  162  Occ=0.000000D+00  E= 5.920105D+00

 Vector  163  Occ=0.000000D+00  E= 6.230539D+00

 Vector  164  Occ=0.000000D+00  E= 6.230563D+00

 Vector  165  Occ=0.000000D+00  E= 6.236198D+00

 Vector  166  Occ=0.000000D+00  E= 6.243351D+00

 Vector  167  Occ=0.000000D+00  E= 6.243360D+00

 Vector  168  Occ=0.000000D+00  E= 6.293997D+00

 Vector  169  Occ=0.000000D+00  E= 6.313374D+00

 Vector  170  Occ=0.000000D+00  E= 6.313384D+00

 Vector  171  Occ=0.000000D+00  E= 6.401568D+00

 Vector  172  Occ=0.000000D+00  E= 6.475901D+00

 Vector  173  Occ=0.000000D+00  E= 6.475903D+00

 Vector  174  Occ=0.000000D+00  E= 6.492834D+00

 Vector  175  Occ=0.000000D+00  E= 6.569445D+00

 Vector  176  Occ=0.000000D+00  E= 6.569448D+00

 Vector  177  Occ=0.000000D+00  E= 6.625162D+00

 Vector  178  Occ=0.000000D+00  E= 6.640610D+00

 Vector  179  Occ=0.000000D+00  E= 6.640618D+00

 Vector  180  Occ=0.000000D+00  E= 6.665651D+00

 Vector  181  Occ=0.000000D+00  E= 6.713686D+00

 Vector  182  Occ=0.000000D+00  E= 6.713687D+00

 Vector  183  Occ=0.000000D+00  E= 6.801853D+00

 Vector  184  Occ=0.000000D+00  E= 6.801854D+00

 Vector  185  Occ=0.000000D+00  E= 6.866135D+00

 Vector  186  Occ=0.000000D+00  E= 6.866138D+00

 Vector  187  Occ=0.000000D+00  E= 6.899316D+00

 Vector  188  Occ=0.000000D+00  E= 7.063729D+00

 Vector  189  Occ=0.000000D+00  E= 7.203529D+00

 Vector  190  Occ=0.000000D+00  E= 7.203556D+00

 Vector  191  Occ=0.000000D+00  E= 7.223730D+00

 Vector  192  Occ=0.000000D+00  E= 7.223755D+00

 Vector  193  Occ=0.000000D+00  E= 7.286328D+00

 Vector  194  Occ=0.000000D+00  E= 7.372765D+00

 Vector  195  Occ=0.000000D+00  E= 7.577232D+00

 Vector  196  Occ=0.000000D+00  E= 7.695828D+00

 Vector  197  Occ=0.000000D+00  E= 7.695833D+00

 Vector  198  Occ=0.000000D+00  E= 7.760135D+00

 Vector  199  Occ=0.000000D+00  E= 7.828805D+00

 Vector  200  Occ=0.000000D+00  E= 7.994360D+00

 Vector  201  Occ=0.000000D+00  E= 7.994383D+00

 Vector  202  Occ=0.000000D+00  E= 8.628134D+00

 Vector  203  Occ=0.000000D+00  E= 9.636636D+00

 Vector  204  Occ=0.000000D+00  E= 9.636741D+00

 Vector  205  Occ=0.000000D+00  E= 1.220862D+01

 Vector  206  Occ=0.000000D+00  E= 1.220864D+01

 Vector  207  Occ=0.000000D+00  E= 1.353209D+01

 Vector  208  Occ=0.000000D+00  E= 1.353217D+01

 Vector  209  Occ=0.000000D+00  E= 1.354258D+01

 Vector  210  Occ=0.000000D+00  E= 1.372527D+01

 Vector  211  Occ=0.000000D+00  E= 1.381408D+01

 Vector  212  Occ=0.000000D+00  E= 1.441198D+01

 Vector  213  Occ=0.000000D+00  E= 1.441200D+01

 Vector  214  Occ=0.000000D+00  E= 1.597256D+01

 Vector  215  Occ=0.000000D+00  E= 1.632351D+01

 Vector  216  Occ=0.000000D+00  E= 1.632356D+01

 Vector  217  Occ=0.000000D+00  E= 1.704965D+01

 Vector  218  Occ=0.000000D+00  E= 1.719345D+01

 Vector  219  Occ=0.000000D+00  E= 1.719348D+01

 Vector  220  Occ=0.000000D+00  E= 2.442209D+01

     Multipole analysis of the density
     ---------------------------------

     L   x y z        total         alpha         beta         nuclear
     -   - - -        -----         -----         ----         -------
     0   0 0 0     -1.000000    -16.000000    -15.000000     30.000000

     1   1 0 0     -0.002832     -0.044883     -0.042050      0.084102
     1   0 1 0      0.000997      0.016709      0.015708     -0.031420
     1   0 0 1      0.004227      0.067559      0.063199     -0.126531

     2   2 0 0    -19.153422    -19.369202    -18.314766     18.530547
     2   1 1 0     -2.395108    -18.057922    -16.457120     32.119934
     2   1 0 1      0.089440      0.674215      0.614427     -1.199203
     2   0 2 0    -21.930991    -40.310679    -37.399821     55.779509
     2   0 1 1     -0.051468     -0.388444     -0.354067      0.691044

 Total times  cpu:       21.9s     wall:       24.4s
