         Total DFT energy =      -76.381615182291
@ Step       Energy      Delta E   Gmax     Grms     Xrms     Xmax   Walltime
@ ---- ---------------- -------- -------- -------- -------- -------- --------
@    0     -76.38161518  0.0D+00  0.00141  0.00084  0.00000  0.00000      8.8
         Total DFT energy =      -76.381620156665
         Total DFT energy =    -76.381620156665
@    1     -76.38162016 -5.0D-06  0.00018  0.00010  0.00220  0.00464      9.5
         Total DFT energy =      -76.381620976551

                       DFT Final Molecular Orbital Analysis
                       ------------------------------------

 Vector    1  Occ=2.000000D+00  E=-1.876001D+01

 Vector   26  Occ=0.000000D+00  E= 6.120696D-01

 Vector   27  Occ=0.000000D+00  E= 6.176092D-01

 Vector   28  Occ=0.000000D+00  E= 6.204578D-01

 Vector   29  Occ=0.000000D+00  E= 7.133130D-01

 Vector   30  Occ=0.000000D+00  E= 7.673854D-01

 Vector   31  Occ=0.000000D+00  E= 7.806825D-01

 Vector   32  Occ=0.000000D+00  E= 7.876147D-01

 Vector   33  Occ=0.000000D+00  E= 8.144304D-01

 Vector   34  Occ=0.000000D+00  E= 8.378821D-01

 Vector   35  Occ=0.000000D+00  E= 8.476221D-01

 Vector   36  Occ=0.000000D+00  E= 9.311105D-01

 Vector   37  Occ=0.000000D+00  E= 9.597361D-01

 Vector   38  Occ=0.000000D+00  E= 1.001959D+00

 Vector   39  Occ=0.000000D+00  E= 1.003567D+00

 Vector   40  Occ=0.000000D+00  E= 1.026840D+00

 Vector   41  Occ=0.000000D+00  E= 1.098073D+00

 Vector   42  Occ=0.000000D+00  E= 1.103469D+00

 Vector   43  Occ=0.000000D+00  E= 1.287984D+00

 Vector   44  Occ=0.000000D+00  E= 1.343019D+00

 Vector   45  Occ=0.000000D+00  E= 1.346611D+00

 Vector   46  Occ=0.000000D+00  E= 1.484793D+00

 Vector   47  Occ=0.000000D+00  E= 1.579703D+00

 Vector   48  Occ=0.000000D+00  E= 1.582574D+00

 Vector   49  Occ=0.000000D+00  E= 1.729368D+00

 Vector   50  Occ=0.000000D+00  E= 1.774858D+00

 Vector   51  Occ=0.000000D+00  E= 1.941835D+00

 Vector   52  Occ=0.000000D+00  E= 1.959895D+00

 Vector   53  Occ=0.000000D+00  E= 1.986580D+00

 Vector   54  Occ=0.000000D+00  E= 2.097999D+00

 Vector   55  Occ=0.000000D+00  E= 2.110888D+00

 Vector   56  Occ=0.000000D+00  E= 2.136318D+00

 Vector   57  Occ=0.000000D+00  E= 2.313732D+00

 Vector   58  Occ=0.000000D+00  E= 2.324320D+00

 Vector   59  Occ=0.000000D+00  E= 2.426916D+00

 Vector   60  Occ=0.000000D+00  E= 2.480191D+00

 Vector   61  Occ=0.000000D+00  E= 2.500611D+00

 Vector   62  Occ=0.000000D+00  E= 2.553403D+00

 Vector   63  Occ=0.000000D+00  E= 2.717198D+00

 Vector   64  Occ=0.000000D+00  E= 2.774595D+00

 Vector   65  Occ=0.000000D+00  E= 3.545983D+00

 Vector   66  Occ=0.000000D+00  E= 3.579999D+00

 Vector   67  Occ=0.000000D+00  E= 3.646490D+00

 Vector   68  Occ=0.000000D+00  E= 3.786695D+00

 Vector   69  Occ=0.000000D+00  E= 3.819706D+00

 Vector   70  Occ=0.000000D+00  E= 3.877234D+00

 Vector   71  Occ=0.000000D+00  E= 3.910481D+00

 Vector   72  Occ=0.000000D+00  E= 3.995385D+00

 Vector   73  Occ=0.000000D+00  E= 4.004420D+00

 Vector   74  Occ=0.000000D+00  E= 4.065649D+00

 Vector   75  Occ=0.000000D+00  E= 4.167896D+00

 Vector   76  Occ=0.000000D+00  E= 4.562048D+00

 Vector   77  Occ=0.000000D+00  E= 4.567489D+00

 Vector   78  Occ=0.000000D+00  E= 4.634298D+00

 Vector   79  Occ=0.000000D+00  E= 4.702272D+00

 Vector   80  Occ=0.000000D+00  E= 4.749532D+00

 Vector   81  Occ=0.000000D+00  E= 5.031203D+00

 Vector   82  Occ=0.000000D+00  E= 5.098690D+00

 Vector   83  Occ=0.000000D+00  E= 5.144096D+00

 Vector   84  Occ=0.000000D+00  E= 5.441003D+00

 Vector   85  Occ=0.000000D+00  E= 5.598073D+00

 Vector   86  Occ=0.000000D+00  E= 5.740342D+00

 Vector   87  Occ=0.000000D+00  E= 6.130889D+00

 Vector   88  Occ=0.000000D+00  E= 6.292284D+00

 Vector   89  Occ=0.000000D+00  E= 6.301494D+00

 Vector   90  Occ=0.000000D+00  E= 6.536233D+00

 Vector   91  Occ=0.000000D+00  E= 6.539700D+00

 Vector   92  Occ=0.000000D+00  E= 6.636703D+00

 Vector   93  Occ=0.000000D+00  E= 6.697491D+00

 Vector   94  Occ=0.000000D+00  E= 6.716675D+00

 Vector   95  Occ=0.000000D+00  E= 6.847767D+00

 Vector   96  Occ=0.000000D+00  E= 6.885459D+00

 Vector   97  Occ=0.000000D+00  E= 7.378289D+00

 Vector   98  Occ=0.000000D+00  E= 8.025704D+00

 Vector   99  Occ=0.000000D+00  E= 8.265946D+00

 Vector  100  Occ=0.000000D+00  E= 8.982320D+00

 Vector  101  Occ=0.000000D+00  E= 1.292542D+01

 Vector  102  Occ=0.000000D+00  E= 1.411595D+01

 Vector  103  Occ=0.000000D+00  E= 1.475076D+01

 Vector  104  Occ=0.000000D+00  E= 1.560833D+01

 Vector  105  Occ=0.000000D+00  E= 1.678082D+01

     Multipole analysis of the density
     ---------------------------------

     L   x y z        total         alpha         beta         nuclear
     -   - - -        -----         -----         ----         -------
     0   0 0 0     -0.000000     -5.000000     -5.000000     10.000000

     1   1 0 0     -0.000000     -0.000000     -0.000000     -0.000000
     1   0 1 0     -0.000000     -0.000000     -0.000000      0.000000
     1   0 0 1     -0.705844      0.775215      0.775215     -2.256274

     2   2 0 0     -5.876677     -2.938338     -2.938338      0.000000
     2   1 1 0      0.000000      0.000000      0.000000      0.000000
     2   1 0 1      0.000000      0.000000      0.000000     -0.000000
     2   0 2 0     -3.393031     -3.788389     -3.788389      4.183747
     2   0 1 1      0.000000     -0.000000     -0.000000      0.000000

         Total DFT energy =    -76.381620976551
@    2     -76.38162098 -8.2D-07  0.00004  0.00002  0.00030  0.00062     10.1
@    2     -76.38162098 -8.2D-07  0.00004  0.00002  0.00030  0.00062     10.1

 Output coordinates in angstroms (scale by  1.889725989 to convert to a.u.)

  No.       Tag          Charge          X              Y              Z
 ---- ---------------- ---------- -------------- -------------- --------------
    1 O                    8.0000    -0.00000000     0.00000000    -0.00019297
    2 H                    1.0000     0.00000000     0.76536549    -0.59621252
    3 H                    1.0000    -0.00000000    -0.76536549    -0.59621252

 Total times  cpu:        9.5s     wall:       10.1s
