 Output coordinates in angstroms (scale by  1.889725989 to convert to a.u.)

  No.       Tag          Charge          X              Y              Z
 ---- ---------------- ---------- -------------- -------------- --------------
    1 N                    7.0000    -0.00043823    -0.00192739    -0.00543460
    2 O                    8.0000    -0.04451030     0.01042904     1.26347332
    3 O                    8.0000     0.56866945     0.94581174    -0.63000995
    4 O                    8.0000    -0.52532392    -0.96181539    -0.64979077

         Total DFT energy =     -280.100134585160

                    DFT Final Alpha Molecular Orbital Analysis
                    ------------------------------------------

 Vector    1  Occ=1.000000D+00  E=-1.888098D+01

 Vector  141  Occ=0.000000D+00  E= 4.415407D+00

 Vector  142  Occ=0.000000D+00  E= 4.415438D+00

 Vector  143  Occ=0.000000D+00  E= 4.481824D+00

 Vector  144  Occ=0.000000D+00  E= 4.481897D+00

 Vector  145  Occ=0.000000D+00  E= 4.594615D+00

 Vector  146  Occ=0.000000D+00  E= 4.602221D+00

 Vector  147  Occ=0.000000D+00  E= 4.733413D+00

 Vector  148  Occ=0.000000D+00  E= 4.744132D+00

 Vector  149  Occ=0.000000D+00  E= 4.744159D+00

 Vector  150  Occ=0.000000D+00  E= 4.995687D+00

 Vector  151  Occ=0.000000D+00  E= 4.995748D+00

 Vector  152  Occ=0.000000D+00  E= 5.009405D+00

 Vector  153  Occ=0.000000D+00  E= 5.083726D+00

 Vector  154  Occ=0.000000D+00  E= 5.083771D+00

 Vector  155  Occ=0.000000D+00  E= 5.177767D+00

 Vector  156  Occ=0.000000D+00  E= 5.177815D+00

 Vector  157  Occ=0.000000D+00  E= 5.195886D+00

 Vector  158  Occ=0.000000D+00  E= 5.366464D+00

 Vector  159  Occ=0.000000D+00  E= 5.371260D+00

 Vector  160  Occ=0.000000D+00  E= 5.590433D+00

 Vector  161  Occ=0.000000D+00  E= 5.590525D+00

 Vector  162  Occ=0.000000D+00  E= 5.910009D+00

 Vector  163  Occ=0.000000D+00  E= 5.942714D+00

 Vector  164  Occ=0.000000D+00  E= 5.942765D+00

 Vector  165  Occ=0.000000D+00  E= 5.992946D+00

 Vector  166  Occ=0.000000D+00  E= 5.992963D+00

 Vector  167  Occ=0.000000D+00  E= 5.996049D+00

 Vector  168  Occ=0.000000D+00  E= 6.043774D+00

 Vector  169  Occ=0.000000D+00  E= 6.097486D+00

 Vector  170  Occ=0.000000D+00  E= 6.097579D+00

 Vector  171  Occ=0.000000D+00  E= 6.098889D+00

 Vector  172  Occ=0.000000D+00  E= 6.098895D+00

 Vector  173  Occ=0.000000D+00  E= 6.121179D+00

 Vector  174  Occ=0.000000D+00  E= 6.285773D+00

 Vector  175  Occ=0.000000D+00  E= 6.285830D+00

 Vector  176  Occ=0.000000D+00  E= 6.324290D+00

 Vector  177  Occ=0.000000D+00  E= 6.365442D+00

 Vector  178  Occ=0.000000D+00  E= 6.428732D+00

 Vector  179  Occ=0.000000D+00  E= 6.428800D+00

 Vector  180  Occ=0.000000D+00  E= 6.551522D+00

 Vector  181  Occ=0.000000D+00  E= 6.551550D+00

 Vector  182  Occ=0.000000D+00  E= 6.560055D+00

 Vector  183  Occ=0.000000D+00  E= 6.560090D+00

 Vector  184  Occ=0.000000D+00  E= 6.592670D+00

 Vector  185  Occ=0.000000D+00  E= 6.669357D+00

 Vector  186  Occ=0.000000D+00  E= 6.669368D+00

 Vector  187  Occ=0.000000D+00  E= 6.787275D+00

 Vector  188  Occ=0.000000D+00  E= 7.032964D+00

 Vector  189  Occ=0.000000D+00  E= 7.033034D+00

 Vector  190  Occ=0.000000D+00  E= 7.091451D+00

 Vector  191  Occ=0.000000D+00  E= 7.210806D+00

 Vector  192  Occ=0.000000D+00  E= 7.210899D+00

 Vector  193  Occ=0.000000D+00  E= 7.220359D+00

 Vector  194  Occ=0.000000D+00  E= 7.355018D+00

 Vector  195  Occ=0.000000D+00  E= 7.526813D+00

 Vector  196  Occ=0.000000D+00  E= 7.526973D+00

 Vector  197  Occ=0.000000D+00  E= 7.804567D+00

 Vector  198  Occ=0.000000D+00  E= 7.845653D+00

 Vector  199  Occ=0.000000D+00  E= 8.103724D+00

 Vector  200  Occ=0.000000D+00  E= 8.103787D+00

 Vector  201  Occ=0.000000D+00  E= 9.660617D+00

 Vector  202  Occ=0.000000D+00  E= 1.184777D+01

 Vector  203  Occ=0.000000D+00  E= 1.195862D+01

 Vector  204  Occ=0.000000D+00  E= 1.195872D+01

 Vector  205  Occ=0.000000D+00  E= 1.223196D+01

 Vector  206  Occ=0.000000D+00  E= 1.223249D+01

 Vector  207  Occ=0.000000D+00  E= 1.337772D+01

 Vector  208  Occ=0.000000D+00  E= 1.337797D+01

 Vector  209  Occ=0.000000D+00  E= 1.339054D+01

 Vector  210  Occ=0.000000D+00  E= 1.387227D+01

 Vector  211  Occ=0.000000D+00  E= 1.466295D+01

 Vector  212  Occ=0.000000D+00  E= 1.466319D+01

 Vector  213  Occ=0.000000D+00  E= 1.547354D+01

 Vector  214  Occ=0.000000D+00  E= 1.654131D+01

 Vector  215  Occ=0.000000D+00  E= 1.654151D+01

 Vector  216  Occ=0.000000D+00  E= 1.659694D+01

 Vector  217  Occ=0.000000D+00  E= 1.721922D+01

 Vector  218  Occ=0.000000D+00  E= 1.721944D+01

 Vector  219  Occ=0.000000D+00  E= 1.967994D+01

 Vector  220  Occ=0.000000D+00  E= 2.476777D+01

     Multipole analysis of the density
     ---------------------------------

     L   x y z        total         alpha         beta         nuclear
     -   - - -        -----         -----         ----         -------
     0   0 0 0     -0.000000    -16.000000    -15.000000     31.000000

     1   1 0 0     -0.000003      0.011911      0.011493     -0.023406
     1   0 1 0      0.000001      0.056369      0.053404     -0.109772
     1   0 0 1     -0.000043      0.164501      0.154179     -0.318724

     2   2 0 0    -15.581011    -16.904661    -15.855497     17.179148
     2   1 1 0     -0.731905    -15.994042    -14.524980     29.787116
     2   1 0 1      0.051367      1.122365      1.018854     -2.089852
     2   0 2 0    -16.436294    -35.594980    -32.829174     51.987860
     2   0 1 1     -0.029640     -0.648352     -0.589564      1.208275

 Total times  cpu:       19.1s     wall:       20.0s
