         Total DFT energy =    -1607.216025590389
@ Step       Energy      Delta E   Gmax     Grms     Xrms     Xmax   Walltime
@ ---- ---------------- -------- -------- -------- -------- -------- --------
@    0   -1607.21602559  0.0D+00  0.00050  0.00021  0.00000  0.00000    213.1
         Total DFT energy =    -1607.216032479336
         Total DFT energy =    -1607.216032964679
@    1   -1607.21603296 -7.4D-06  0.00182  0.00064  0.02302  0.07782    482.4
         Total DFT energy =    -1607.216035587905
         Total DFT energy =  -1607.216035587905
@    2   -1607.21603559 -2.6D-06  0.00033  0.00016  0.00125  0.00259    559.6
         Total DFT energy =    -1607.216039607704
         Total DFT energy =  -1607.216039607704
@    3   -1607.21603961 -4.0D-06  0.00017  0.00007  0.00492  0.01618    694.9
         Total DFT energy =    -1607.216040204438
         Total DFT energy =  -1607.216040204438
@    4   -1607.21604020 -6.0D-07  0.00024  0.00007  0.00733  0.02424    831.2
         Total DFT energy =    -1607.216040623781
         Total DFT energy =  -1607.216040623781
@    5   -1607.21604062 -4.2D-07  0.00009  0.00003  0.00061  0.00186    943.6
         Total DFT energy =    -1607.216040649696
         Total DFT energy =  -1607.216040649696
@    6   -1607.21604065 -2.6D-08  0.00004  0.00001  0.00068  0.00215   1053.9
         Total DFT energy =    -1607.216040671145

                       DFT Final Molecular Orbital Analysis
                       ------------------------------------

 Vector    1  Occ=2.000000D+00  E=-1.007349D+02

 Vector  343  Occ=0.000000D+00  E= 4.427577D+00

 Vector  344  Occ=0.000000D+00  E= 4.446131D+00

 Vector  345  Occ=0.000000D+00  E= 4.487310D+00

 Vector  346  Occ=0.000000D+00  E= 4.520024D+00

 Vector  347  Occ=0.000000D+00  E= 4.579434D+00

 Vector  348  Occ=0.000000D+00  E= 4.623707D+00

 Vector  349  Occ=0.000000D+00  E= 4.699423D+00

 Vector  350  Occ=0.000000D+00  E= 4.759974D+00

 Vector  351  Occ=0.000000D+00  E= 4.766580D+00

 Vector  352  Occ=0.000000D+00  E= 4.912875D+00

 Vector  353  Occ=0.000000D+00  E= 5.093954D+00

 Vector  354  Occ=0.000000D+00  E= 5.138845D+00

 Vector  355  Occ=0.000000D+00  E= 5.150624D+00

 Vector  356  Occ=0.000000D+00  E= 5.228046D+00

 Vector  357  Occ=0.000000D+00  E= 5.390012D+00

 Vector  358  Occ=0.000000D+00  E= 5.559969D+00

 Vector  359  Occ=0.000000D+00  E= 5.631364D+00

 Vector  360  Occ=0.000000D+00  E= 5.768695D+00

 Vector  361  Occ=0.000000D+00  E= 5.858184D+00

 Vector  362  Occ=0.000000D+00  E= 5.871711D+00

 Vector  363  Occ=0.000000D+00  E= 5.916773D+00

 Vector  364  Occ=0.000000D+00  E= 5.929253D+00

 Vector  365  Occ=0.000000D+00  E= 6.008645D+00

 Vector  366  Occ=0.000000D+00  E= 6.017715D+00

 Vector  367  Occ=0.000000D+00  E= 6.063115D+00

 Vector  368  Occ=0.000000D+00  E= 6.134562D+00

 Vector  369  Occ=0.000000D+00  E= 6.233466D+00

 Vector  370  Occ=0.000000D+00  E= 6.289625D+00

 Vector  371  Occ=0.000000D+00  E= 6.296057D+00

 Vector  372  Occ=0.000000D+00  E= 6.372064D+00

 Vector  373  Occ=0.000000D+00  E= 6.391903D+00

 Vector  374  Occ=0.000000D+00  E= 6.414236D+00

 Vector  375  Occ=0.000000D+00  E= 6.450087D+00

 Vector  376  Occ=0.000000D+00  E= 6.522293D+00

 Vector  377  Occ=0.000000D+00  E= 6.590147D+00

 Vector  378  Occ=0.000000D+00  E= 6.613070D+00

 Vector  379  Occ=0.000000D+00  E= 6.654420D+00

 Vector  380  Occ=0.000000D+00  E= 6.675387D+00

 Vector  381  Occ=0.000000D+00  E= 6.709606D+00

 Vector  382  Occ=0.000000D+00  E= 6.750796D+00

 Vector  383  Occ=0.000000D+00  E= 6.811057D+00

 Vector  384  Occ=0.000000D+00  E= 6.900708D+00

 Vector  385  Occ=0.000000D+00  E= 6.995094D+00

 Vector  386  Occ=0.000000D+00  E= 7.014683D+00

 Vector  387  Occ=0.000000D+00  E= 7.122555D+00

 Vector  388  Occ=0.000000D+00  E= 7.217363D+00

 Vector  389  Occ=0.000000D+00  E= 7.220838D+00

 Vector  390  Occ=0.000000D+00  E= 7.284525D+00

 Vector  391  Occ=0.000000D+00  E= 7.341419D+00

 Vector  392  Occ=0.000000D+00  E= 7.488702D+00

 Vector  393  Occ=0.000000D+00  E= 7.639969D+00

 Vector  394  Occ=0.000000D+00  E= 7.862871D+00

 Vector  395  Occ=0.000000D+00  E= 8.057817D+00

 Vector  396  Occ=0.000000D+00  E= 8.103926D+00

 Vector  397  Occ=0.000000D+00  E= 8.141791D+00

 Vector  398  Occ=0.000000D+00  E= 8.423487D+00

 Vector  399  Occ=0.000000D+00  E= 8.760215D+00

 Vector  400  Occ=0.000000D+00  E= 8.890980D+00

 Vector  401  Occ=0.000000D+00  E= 8.899844D+00

 Vector  402  Occ=0.000000D+00  E= 8.916816D+00

 Vector  403  Occ=0.000000D+00  E= 9.387839D+00

 Vector  404  Occ=0.000000D+00  E= 9.567823D+00

 Vector  405  Occ=0.000000D+00  E= 9.720847D+00

 Vector  406  Occ=0.000000D+00  E= 9.794454D+00

 Vector  407  Occ=0.000000D+00  E= 1.021557D+01

 Vector  408  Occ=0.000000D+00  E= 1.351350D+01

 Vector  409  Occ=0.000000D+00  E= 1.375052D+01

 Vector  410  Occ=0.000000D+00  E= 1.382527D+01

 Vector  411  Occ=0.000000D+00  E= 1.433295D+01

 Vector  412  Occ=0.000000D+00  E= 1.439840D+01

 Vector  413  Occ=0.000000D+00  E= 1.494463D+01

 Vector  414  Occ=0.000000D+00  E= 1.546530D+01

 Vector  415  Occ=0.000000D+00  E= 1.586448D+01

 Vector  416  Occ=0.000000D+00  E= 1.622940D+01

 Vector  417  Occ=0.000000D+00  E= 1.665912D+01

 Vector  418  Occ=0.000000D+00  E= 1.675659D+01

 Vector  419  Occ=0.000000D+00  E= 1.971876D+01

 Vector  420  Occ=0.000000D+00  E= 2.032475D+01

 Vector  421  Occ=0.000000D+00  E= 2.724702D+01

 Vector  422  Occ=0.000000D+00  E= 2.969022D+01

     Multipole analysis of the density
     ---------------------------------

     L   x y z        total         alpha         beta         nuclear
     -   - - -        -----         -----         ----         -------
     0   0 0 0     -0.000000    -40.000000    -40.000000     80.000000

     1   1 0 0     -0.080197      1.453360      1.453360     -2.986917
     1   0 1 0      0.525096      0.042072      0.042072      0.440952
     1   0 0 1     -0.439018   -102.744146   -102.744146    205.049274

     2   2 0 0    -44.099639   -155.670267   -155.670267    267.240895
     2   1 1 0      0.817769      7.377972      7.377972    -13.938174
     2   1 0 1      0.377281      8.258201      8.258201    -16.139121
     2   0 2 0    -45.788782   -188.000675   -188.000675    330.212568
     2   0 1 1     -2.336621      8.494052      8.494052    -19.324726

         Total DFT energy =  -1607.216040671145
@    7   -1607.21604067 -2.1D-08  0.00003  0.00001  0.00026  0.00077   1163.8
@    7   -1607.21604067 -2.1D-08  0.00003  0.00001  0.00026  0.00077   1163.8

 Output coordinates in angstroms (scale by  1.889725989 to convert to a.u.)

  No.       Tag          Charge          X              Y              Z
 ---- ---------------- ---------- -------------- -------------- --------------
    1 C                    6.0000     0.13730510    -0.08400601     0.01853836
    2 C                    6.0000    -0.03077087    -0.04106839     1.56844934
    3 O                    8.0000    -0.09801056     1.13221000    -0.51394555
    4 O                    8.0000     0.43588754    -1.07374977    -0.60104715
    5 Cl                  17.0000     1.13803422     1.14605064     2.23538280
    6 Cl                  17.0000    -1.71072756     0.46550793     1.94495127
    7 Cl                  17.0000     0.28178653    -1.64224647     2.25411068
    8 H                    1.0000     0.02258583     1.03780077    -1.48013439

 Total times  cpu:     1126.2s     wall:     1163.9s
