         Total DFT energy =     -698.717831917697
@ Step       Energy      Delta E   Gmax     Grms     Xrms     Xmax   Walltime
@ ---- ---------------- -------- -------- -------- -------- -------- --------
@    0    -698.71783192  0.0D+00  0.08186  0.02858  0.00000  0.00000     60.4
         Total DFT energy =     -698.723417682411
         Total DFT energy =   -698.723417682411
@    1    -698.72341768 -5.6D-03  0.01509  0.00461  0.02724  0.06730    106.9
         Total DFT energy =     -698.723832535076
         Total DFT energy =     -698.723987751345
@    2    -698.72398775 -5.7D-04  0.00483  0.00176  0.01912  0.04688    171.8
         Total DFT energy =     -698.724015631627
         Total DFT energy =     -698.724015666123
@    3    -698.72401567 -2.8D-05  0.00176  0.00068  0.00349  0.00695    212.6
         Total DFT energy =     -698.724020599258
         Total DFT energy =   -698.724020599258
@    4    -698.72402060 -4.9D-06  0.00076  0.00032  0.00247  0.00465    242.5
         Total DFT energy =     -698.724022357781

                       DFT Final Molecular Orbital Analysis
                       ------------------------------------

 Vector    1  Occ=2.000000D+00  E=-8.786948D+01

 Vector  200  Occ=0.000000D+00  E= 5.451779D+00

 Vector  201  Occ=0.000000D+00  E= 5.489275D+00

 Vector  202  Occ=0.000000D+00  E= 5.489283D+00

 Vector  203  Occ=0.000000D+00  E= 5.913594D+00

 Vector  204  Occ=0.000000D+00  E= 5.994987D+00

 Vector  205  Occ=0.000000D+00  E= 5.995062D+00

 Vector  206  Occ=0.000000D+00  E= 5.995248D+00

 Vector  207  Occ=0.000000D+00  E= 6.108962D+00

 Vector  208  Occ=0.000000D+00  E= 6.108975D+00

 Vector  209  Occ=0.000000D+00  E= 6.109021D+00

 Vector  210  Occ=0.000000D+00  E= 6.450443D+00

 Vector  211  Occ=0.000000D+00  E= 6.450449D+00

 Vector  212  Occ=0.000000D+00  E= 6.450461D+00

 Vector  213  Occ=0.000000D+00  E= 6.454525D+00

 Vector  214  Occ=0.000000D+00  E= 6.461423D+00

 Vector  215  Occ=0.000000D+00  E= 6.461427D+00

 Vector  216  Occ=0.000000D+00  E= 6.498688D+00

 Vector  217  Occ=0.000000D+00  E= 6.498695D+00

 Vector  218  Occ=0.000000D+00  E= 6.498712D+00

 Vector  219  Occ=0.000000D+00  E= 6.542064D+00

 Vector  220  Occ=0.000000D+00  E= 6.626859D+00

 Vector  221  Occ=0.000000D+00  E= 6.681976D+00

 Vector  222  Occ=0.000000D+00  E= 6.681979D+00

 Vector  223  Occ=0.000000D+00  E= 6.732738D+00

 Vector  224  Occ=0.000000D+00  E= 6.732744D+00

 Vector  225  Occ=0.000000D+00  E= 6.732756D+00

 Vector  226  Occ=0.000000D+00  E= 6.746733D+00

 Vector  227  Occ=0.000000D+00  E= 6.746736D+00

 Vector  228  Occ=0.000000D+00  E= 6.746744D+00

 Vector  229  Occ=0.000000D+00  E= 6.870069D+00

 Vector  230  Occ=0.000000D+00  E= 6.870072D+00

 Vector  231  Occ=0.000000D+00  E= 6.870083D+00

 Vector  232  Occ=0.000000D+00  E= 6.890510D+00

 Vector  233  Occ=0.000000D+00  E= 6.890511D+00

 Vector  234  Occ=0.000000D+00  E= 6.893373D+00

 Vector  235  Occ=0.000000D+00  E= 6.893376D+00

 Vector  236  Occ=0.000000D+00  E= 6.893381D+00

 Vector  237  Occ=0.000000D+00  E= 6.948140D+00

 Vector  238  Occ=0.000000D+00  E= 6.948154D+00

 Vector  239  Occ=0.000000D+00  E= 6.948189D+00

 Vector  240  Occ=0.000000D+00  E= 6.972021D+00

 Vector  241  Occ=0.000000D+00  E= 6.972026D+00

 Vector  242  Occ=0.000000D+00  E= 6.972029D+00

 Vector  243  Occ=0.000000D+00  E= 7.105146D+00

 Vector  244  Occ=0.000000D+00  E= 7.105150D+00

 Vector  245  Occ=0.000000D+00  E= 7.105163D+00

 Vector  246  Occ=0.000000D+00  E= 7.176548D+00

 Vector  247  Occ=0.000000D+00  E= 7.176552D+00

 Vector  248  Occ=0.000000D+00  E= 7.176569D+00

 Vector  249  Occ=0.000000D+00  E= 7.534480D+00

 Vector  250  Occ=0.000000D+00  E= 7.534510D+00

 Vector  251  Occ=0.000000D+00  E= 7.534538D+00

 Vector  252  Occ=0.000000D+00  E= 7.576887D+00

 Vector  253  Occ=0.000000D+00  E= 7.697732D+00

 Vector  254  Occ=0.000000D+00  E= 7.697772D+00

 Vector  255  Occ=0.000000D+00  E= 8.072122D+00

 Vector  256  Occ=0.000000D+00  E= 8.142620D+00

 Vector  257  Occ=0.000000D+00  E= 8.142629D+00

 Vector  258  Occ=0.000000D+00  E= 8.142708D+00

 Vector  259  Occ=0.000000D+00  E= 1.280486D+01

 Vector  260  Occ=0.000000D+00  E= 1.280491D+01

 Vector  261  Occ=0.000000D+00  E= 1.280502D+01

 Vector  262  Occ=0.000000D+00  E= 1.329218D+01

 Vector  263  Occ=0.000000D+00  E= 1.365604D+01

 Vector  264  Occ=0.000000D+00  E= 1.365605D+01

 Vector  265  Occ=0.000000D+00  E= 1.365611D+01

 Vector  266  Occ=0.000000D+00  E= 1.417796D+01

 Vector  267  Occ=0.000000D+00  E= 1.417800D+01

 Vector  268  Occ=0.000000D+00  E= 1.417806D+01

 Vector  269  Occ=0.000000D+00  E= 1.428368D+01

 Vector  270  Occ=0.000000D+00  E= 1.428382D+01

 Vector  271  Occ=0.000000D+00  E= 1.540129D+01

 Vector  272  Occ=0.000000D+00  E= 1.670275D+01

 Vector  273  Occ=0.000000D+00  E= 1.670276D+01

 Vector  274  Occ=0.000000D+00  E= 1.670279D+01

 Vector  275  Occ=0.000000D+00  E= 1.736732D+01

 Vector  276  Occ=0.000000D+00  E= 1.736733D+01

 Vector  277  Occ=0.000000D+00  E= 1.736736D+01

 Vector  278  Occ=0.000000D+00  E= 1.737424D+01

 Vector  279  Occ=0.000000D+00  E= 3.691360D+01

     Multipole analysis of the density
     ---------------------------------

     L   x y z        total         alpha         beta         nuclear
     -   - - -        -----         -----         ----         -------
     0   0 0 0     -2.000000    -25.000000    -25.000000     48.000000

     1   1 0 0      0.001228      0.015520      0.015520     -0.029813
     1   0 1 0     -0.001723     -0.019437     -0.019437      0.037150
     1   0 0 1      0.089207      1.111626      1.111626     -2.134046

     2   2 0 0    -39.200551    -64.302943    -64.302943     89.405335
     2   1 1 0      0.000038      0.000106      0.000106     -0.000173
     2   1 0 1     -0.000168     -0.001845     -0.001845      0.003521
     2   0 2 0    -39.200559    -64.302524    -64.302524     89.404490
     2   0 1 1      0.000249      0.002110      0.002110     -0.003970

         Total DFT energy =   -698.724022357781
@    5    -698.72402236 -1.8D-06  0.00003  0.00001  0.00085  0.00172    268.0
@    5    -698.72402236 -1.8D-06  0.00003  0.00001  0.00085  0.00172    268.0

 Output coordinates in angstroms (scale by  1.889725989 to convert to a.u.)

  No.       Tag          Charge          X              Y              Z
 ---- ---------------- ---------- -------------- -------------- --------------
    1 S                   16.0000    -0.00033402     0.00040839    -0.02351707
    2 O                    8.0000    -0.00091234     1.44351569    -0.53790438
    3 O                    8.0000     1.25137804    -0.72228747    -0.53147647
    4 O                    8.0000    -0.00134733     0.00430513     1.50845551
    5 O                    8.0000    -1.25042234    -0.72389274    -0.53320158

 Total times  cpu:      264.1s     wall:      268.0s
