 Output coordinates in angstroms (scale by  1.889725989 to convert to a.u.)

  No.       Tag          Charge          X              Y              Z
 ---- ---------------- ---------- -------------- -------------- --------------
    1 F                    9.0000     0.00000000     0.00000000     0.00000000

         Total DFT energy =      -99.666683033249

                    DFT Final Alpha Molecular Orbital Analysis
                    ------------------------------------------

 Vector    1  Occ=1.000000D+00  E=-2.436266D+01

 Vector   31  Occ=0.000000D+00  E= 2.529399D+00

 Vector   32  Occ=0.000000D+00  E= 2.529399D+00

 Vector   33  Occ=0.000000D+00  E= 2.554076D+00

 Vector   34  Occ=0.000000D+00  E= 2.554076D+00

 Vector   35  Occ=0.000000D+00  E= 4.650643D+00

 Vector   36  Occ=0.000000D+00  E= 6.507350D+00

 Vector   37  Occ=0.000000D+00  E= 6.580401D+00

 Vector   38  Occ=0.000000D+00  E= 6.580401D+00

 Vector   39  Occ=0.000000D+00  E= 8.010536D+00

 Vector   40  Occ=0.000000D+00  E= 8.020533D+00

 Vector   41  Occ=0.000000D+00  E= 8.020533D+00

 Vector   42  Occ=0.000000D+00  E= 8.050905D+00

 Vector   43  Occ=0.000000D+00  E= 8.050905D+00

 Vector   44  Occ=0.000000D+00  E= 8.102586D+00

 Vector   45  Occ=0.000000D+00  E= 8.102586D+00

 Vector   46  Occ=0.000000D+00  E= 8.360304D+00

 Vector   47  Occ=0.000000D+00  E= 8.385005D+00

 Vector   48  Occ=0.000000D+00  E= 8.385005D+00

 Vector   49  Occ=0.000000D+00  E= 8.460243D+00

 Vector   50  Occ=0.000000D+00  E= 8.460243D+00

 Vector   51  Occ=0.000000D+00  E= 1.365765D+01

 Vector   52  Occ=0.000000D+00  E= 1.684805D+01

 Vector   53  Occ=0.000000D+00  E= 1.690786D+01

 Vector   54  Occ=0.000000D+00  E= 1.690786D+01

 Vector   55  Occ=0.000000D+00  E= 2.218481D+01

 Vector    1  Occ=1.000000D+00  E=-2.433381D+01

 Vector    2  Occ=1.000000D+00  E=-1.052020D+00

 Vector    3  Occ=1.000000D+00  E=-3.784690D-01

 Vector    4  Occ=1.000000D+00  E=-3.784680D-01

 Vector    5  Occ=0.000000D+00  E=-3.419747D-01

 Vector    6  Occ=0.000000D+00  E= 6.293871D-02

 Vector    7  Occ=0.000000D+00  E= 1.139973D-01

 Vector    8  Occ=0.000000D+00  E= 1.139973D-01

 Vector    9  Occ=0.000000D+00  E= 1.234498D-01

 Vector   10  Occ=0.000000D+00  E= 6.376167D-01

 Vector   11  Occ=0.000000D+00  E= 6.776490D-01

 Vector   12  Occ=0.000000D+00  E= 6.776490D-01

 Vector   13  Occ=0.000000D+00  E= 6.795003D-01

 Vector   14  Occ=0.000000D+00  E= 6.795003D-01

 Vector   15  Occ=0.000000D+00  E= 6.864098D-01

 Vector   16  Occ=0.000000D+00  E= 7.310786D-01

 Vector   17  Occ=0.000000D+00  E= 7.310790D-01

 Vector   18  Occ=0.000000D+00  E= 7.441114D-01

 Vector   19  Occ=0.000000D+00  E= 2.341275D+00

 Vector   20  Occ=0.000000D+00  E= 2.341276D+00

 Vector   21  Occ=0.000000D+00  E= 2.366323D+00

 Vector   22  Occ=0.000000D+00  E= 2.434075D+00

 Vector   23  Occ=0.000000D+00  E= 2.434075D+00

 Vector   24  Occ=0.000000D+00  E= 2.439978D+00

 Vector   25  Occ=0.000000D+00  E= 2.439978D+00

 Vector   26  Occ=0.000000D+00  E= 2.459589D+00

 Vector   27  Occ=0.000000D+00  E= 2.499841D+00

 Vector   28  Occ=0.000000D+00  E= 2.553623D+00

 Vector   29  Occ=0.000000D+00  E= 2.553623D+00

 Vector   30  Occ=0.000000D+00  E= 2.555218D+00

 Vector   31  Occ=0.000000D+00  E= 2.555218D+00

 Vector   32  Occ=0.000000D+00  E= 2.561835D+00

 Vector   33  Occ=0.000000D+00  E= 2.561835D+00

 Vector   34  Occ=0.000000D+00  E= 2.567530D+00

 Vector   35  Occ=0.000000D+00  E= 4.673104D+00

 Vector   36  Occ=0.000000D+00  E= 6.604001D+00

 Vector   37  Occ=0.000000D+00  E= 6.604004D+00

 Vector   38  Occ=0.000000D+00  E= 6.636654D+00

 Vector   39  Occ=0.000000D+00  E= 8.106794D+00

 Vector   40  Occ=0.000000D+00  E= 8.106794D+00

 Vector   41  Occ=0.000000D+00  E= 8.109063D+00

 Vector   42  Occ=0.000000D+00  E= 8.109064D+00

 Vector   43  Occ=0.000000D+00  E= 8.124306D+00

 Vector   44  Occ=0.000000D+00  E= 8.124307D+00

 Vector   45  Occ=0.000000D+00  E= 8.140943D+00

 Vector   46  Occ=0.000000D+00  E= 8.476064D+00

 Vector   47  Occ=0.000000D+00  E= 8.476065D+00

 Vector   48  Occ=0.000000D+00  E= 8.500446D+00

 Vector   49  Occ=0.000000D+00  E= 8.500452D+00

 Vector   50  Occ=0.000000D+00  E= 8.545197D+00

 Vector   51  Occ=0.000000D+00  E= 1.370698D+01

 Vector   52  Occ=0.000000D+00  E= 1.692550D+01

 Vector   53  Occ=0.000000D+00  E= 1.692550D+01

 Vector   54  Occ=0.000000D+00  E= 1.694874D+01

 Vector   55  Occ=0.000000D+00  E= 2.225433D+01

 Total times  cpu:        0.5s     wall:        0.7s
