 Output coordinates in angstroms (scale by  1.889725989 to convert to a.u.)

  No.       Tag          Charge          X              Y              Z
 ---- ---------------- ---------- -------------- -------------- --------------
    1 I                   53.0000     0.00000000     0.00000000     0.00000000

         Total DFT energy =    -6919.032301175093

                       DFT Final Molecular Orbital Analysis
                       ------------------------------------

 Vector    1  Occ=2.000000D+00  E=-1.162703D+03

 Vector    2  Occ=2.000000D+00  E=-1.748636D+02

 Vector    3  Occ=2.000000D+00  E=-1.643788D+02

 Vector    4  Occ=2.000000D+00  E=-1.643788D+02

 Vector    5  Occ=2.000000D+00  E=-1.643788D+02

 Vector    6  Occ=2.000000D+00  E=-3.498087D+01

 Vector    7  Occ=2.000000D+00  E=-3.053724D+01

 Vector    8  Occ=2.000000D+00  E=-3.053724D+01

 Vector    9  Occ=2.000000D+00  E=-3.053724D+01

 Vector   10  Occ=2.000000D+00  E=-2.230259D+01

 Vector   11  Occ=2.000000D+00  E=-2.230259D+01

 Vector   12  Occ=2.000000D+00  E=-2.230259D+01

 Vector   13  Occ=2.000000D+00  E=-2.230259D+01

 Vector   14  Occ=2.000000D+00  E=-2.230259D+01

 Vector   15  Occ=2.000000D+00  E=-5.837913D+00

 Vector   16  Occ=2.000000D+00  E=-4.281835D+00

 Vector   17  Occ=2.000000D+00  E=-4.281835D+00

 Vector   18  Occ=2.000000D+00  E=-4.281835D+00

 Vector   19  Occ=2.000000D+00  E=-1.631710D+00

 Vector   20  Occ=2.000000D+00  E=-1.631710D+00

 Vector   21  Occ=2.000000D+00  E=-1.631710D+00

 Vector   22  Occ=2.000000D+00  E=-1.631710D+00

 Vector   23  Occ=2.000000D+00  E=-1.631710D+00

 Vector   24  Occ=2.000000D+00  E=-3.013325D-01

 Vector   25  Occ=2.000000D+00  E= 8.932896D-03

 Vector   26  Occ=2.000000D+00  E= 8.932896D-03

 Vector   27  Occ=2.000000D+00  E= 8.932896D-03

 Vector   28  Occ=0.000000D+00  E= 3.387226D-01

 Vector   29  Occ=0.000000D+00  E= 3.848686D-01

 Vector   30  Occ=0.000000D+00  E= 3.848686D-01

 Vector   31  Occ=0.000000D+00  E= 3.848686D-01

 Vector   32  Occ=0.000000D+00  E= 6.160920D-01

 Vector   33  Occ=0.000000D+00  E= 6.160920D-01

 Vector   34  Occ=0.000000D+00  E= 6.160920D-01

 Vector   35  Occ=0.000000D+00  E= 6.160920D-01

 Vector   36  Occ=0.000000D+00  E= 6.160920D-01

 Vector   37  Occ=0.000000D+00  E= 1.292191D+00

 Vector   38  Occ=0.000000D+00  E= 1.460336D+00

 Vector   39  Occ=0.000000D+00  E= 1.460336D+00

 Vector   40  Occ=0.000000D+00  E= 1.460336D+00

 Vector   41  Occ=0.000000D+00  E= 3.682226D+00

 Vector   42  Occ=0.000000D+00  E= 4.124536D+00

 Vector   43  Occ=0.000000D+00  E= 4.124536D+00

 Vector   44  Occ=0.000000D+00  E= 4.124536D+00

 Vector   45  Occ=0.000000D+00  E= 4.124536D+00

 Vector   46  Occ=0.000000D+00  E= 4.124536D+00

 Vector   47  Occ=0.000000D+00  E= 6.114539D+00

 Vector   48  Occ=0.000000D+00  E= 6.114539D+00

 Vector   49  Occ=0.000000D+00  E= 6.114539D+00

 Vector   50  Occ=0.000000D+00  E= 9.127669D+00

 Vector   51  Occ=0.000000D+00  E= 2.071784D+01

 Vector   52  Occ=0.000000D+00  E= 2.832935D+01

 Vector   53  Occ=0.000000D+00  E= 2.832935D+01

 Vector   54  Occ=0.000000D+00  E= 2.832935D+01

 Vector   55  Occ=0.000000D+00  E= 2.851819D+01

 Vector   56  Occ=0.000000D+00  E= 2.851819D+01

 Vector   57  Occ=0.000000D+00  E= 2.851819D+01

 Vector   58  Occ=0.000000D+00  E= 2.851819D+01

 Vector   59  Occ=0.000000D+00  E= 2.851819D+01

 Vector   60  Occ=0.000000D+00  E= 4.245778D+01

 Vector   61  Occ=0.000000D+00  E= 8.164868D+01

 Vector   62  Occ=0.000000D+00  E= 1.275278D+02

 Vector   63  Occ=0.000000D+00  E= 1.275278D+02

 Vector   64  Occ=0.000000D+00  E= 1.275278D+02

 Vector   65  Occ=0.000000D+00  E= 1.987623D+02

 Vector   66  Occ=0.000000D+00  E= 4.819195D+02

 Vector   67  Occ=0.000000D+00  E= 2.232437D+03

 Total times  cpu:        6.2s     wall:        7.5s
