 Output coordinates in angstroms (scale by  1.889725989 to convert to a.u.)

  No.       Tag          Charge          X              Y              Z
 ---- ---------------- ---------- -------------- -------------- --------------
    1 C                    6.0000     0.00452756     0.00338203    -0.10160101
    2 C                    6.0000    -0.04611664     0.00094233     1.54601470
    3 O                    8.0000     0.57581970     0.99153849    -0.58736281
    4 O                    8.0000    -0.55319814    -1.00462730    -0.56680626
    5 Cl                  17.0000     0.77484059     1.41934068     2.32871824
    6 Cl                  17.0000    -1.77833909     0.00563468     2.10892091
    7 Cl                  17.0000     0.74777702    -1.50347590     2.19536423

         Total DFT energy =    -1606.535502521980

                    DFT Final Alpha Molecular Orbital Analysis
                    ------------------------------------------

 Vector    1  Occ=1.000000D+00  E=-1.007609D+02

 Vector  318  Occ=0.000000D+00  E= 4.041877D+00

 Vector  319  Occ=0.000000D+00  E= 4.139258D+00

 Vector  320  Occ=0.000000D+00  E= 4.185060D+00

 Vector  321  Occ=0.000000D+00  E= 4.188347D+00

 Vector  322  Occ=0.000000D+00  E= 4.222878D+00

 Vector  323  Occ=0.000000D+00  E= 4.254657D+00

 Vector  324  Occ=0.000000D+00  E= 4.306905D+00

 Vector  325  Occ=0.000000D+00  E= 4.439596D+00

 Vector  326  Occ=0.000000D+00  E= 4.475142D+00

 Vector  327  Occ=0.000000D+00  E= 4.497050D+00

 Vector  328  Occ=0.000000D+00  E= 4.522468D+00

 Vector  329  Occ=0.000000D+00  E= 4.615737D+00

 Vector  330  Occ=0.000000D+00  E= 4.730373D+00

 Vector  331  Occ=0.000000D+00  E= 5.136653D+00

 Vector  332  Occ=0.000000D+00  E= 5.180110D+00

 Vector  333  Occ=0.000000D+00  E= 5.207643D+00

 Vector  334  Occ=0.000000D+00  E= 5.466160D+00

 Vector  335  Occ=0.000000D+00  E= 5.491080D+00

 Vector  336  Occ=0.000000D+00  E= 5.507119D+00

 Vector  337  Occ=0.000000D+00  E= 5.727952D+00

 Vector  338  Occ=0.000000D+00  E= 5.783827D+00

 Vector  339  Occ=0.000000D+00  E= 5.800137D+00

 Vector  340  Occ=0.000000D+00  E= 5.807434D+00

 Vector  341  Occ=0.000000D+00  E= 5.905725D+00

 Vector  342  Occ=0.000000D+00  E= 5.915264D+00

 Vector  343  Occ=0.000000D+00  E= 6.018971D+00

 Vector  344  Occ=0.000000D+00  E= 6.072475D+00

 Vector  345  Occ=0.000000D+00  E= 6.107751D+00

 Vector  346  Occ=0.000000D+00  E= 6.122371D+00

 Vector  347  Occ=0.000000D+00  E= 6.223413D+00

 Vector  348  Occ=0.000000D+00  E= 6.242571D+00

 Vector  349  Occ=0.000000D+00  E= 6.307477D+00

 Vector  350  Occ=0.000000D+00  E= 6.311293D+00

 Vector  351  Occ=0.000000D+00  E= 6.376834D+00

 Vector  352  Occ=0.000000D+00  E= 6.406820D+00

 Vector  353  Occ=0.000000D+00  E= 6.447603D+00

 Vector  354  Occ=0.000000D+00  E= 6.491797D+00

 Vector  355  Occ=0.000000D+00  E= 6.539912D+00

 Vector  356  Occ=0.000000D+00  E= 6.556732D+00

 Vector  357  Occ=0.000000D+00  E= 6.622833D+00

 Vector  358  Occ=0.000000D+00  E= 6.651463D+00

 Vector  359  Occ=0.000000D+00  E= 6.663564D+00

 Vector  360  Occ=0.000000D+00  E= 6.862495D+00

 Vector  361  Occ=0.000000D+00  E= 6.928658D+00

 Vector  362  Occ=0.000000D+00  E= 7.003461D+00

 Vector  363  Occ=0.000000D+00  E= 7.081011D+00

 Vector  364  Occ=0.000000D+00  E= 7.121433D+00

 Vector  365  Occ=0.000000D+00  E= 7.152528D+00

 Vector  366  Occ=0.000000D+00  E= 7.228773D+00

 Vector  367  Occ=0.000000D+00  E= 7.303668D+00

 Vector  368  Occ=0.000000D+00  E= 7.392835D+00

 Vector  369  Occ=0.000000D+00  E= 7.506085D+00

 Vector  370  Occ=0.000000D+00  E= 7.714005D+00

 Vector  371  Occ=0.000000D+00  E= 7.941942D+00

 Vector  372  Occ=0.000000D+00  E= 7.944394D+00

 Vector  373  Occ=0.000000D+00  E= 8.031731D+00

 Vector  374  Occ=0.000000D+00  E= 8.403135D+00

 Vector  375  Occ=0.000000D+00  E= 8.809247D+00

 Vector  376  Occ=0.000000D+00  E= 8.865259D+00

 Vector  377  Occ=0.000000D+00  E= 8.875458D+00

 Vector  378  Occ=0.000000D+00  E= 9.279262D+00

 Vector  379  Occ=0.000000D+00  E= 9.345918D+00

 Vector  380  Occ=0.000000D+00  E= 9.465116D+00

 Vector  381  Occ=0.000000D+00  E= 9.871373D+00

 Vector  382  Occ=0.000000D+00  E= 1.014972D+01

 Vector  383  Occ=0.000000D+00  E= 1.229936D+01

 Vector  384  Occ=0.000000D+00  E= 1.261672D+01

 Vector  385  Occ=0.000000D+00  E= 1.322725D+01

 Vector  386  Occ=0.000000D+00  E= 1.368402D+01

 Vector  387  Occ=0.000000D+00  E= 1.422597D+01

 Vector  388  Occ=0.000000D+00  E= 1.430771D+01

 Vector  389  Occ=0.000000D+00  E= 1.450386D+01

 Vector  390  Occ=0.000000D+00  E= 1.506292D+01

 Vector  391  Occ=0.000000D+00  E= 1.527868D+01

 Vector  392  Occ=0.000000D+00  E= 1.653218D+01

 Vector  393  Occ=0.000000D+00  E= 1.666553D+01

 Vector  394  Occ=0.000000D+00  E= 1.855184D+01

 Vector  395  Occ=0.000000D+00  E= 1.912837D+01

 Vector  396  Occ=0.000000D+00  E= 2.427583D+01

 Vector  397  Occ=0.000000D+00  E= 2.873083D+01

     Multipole analysis of the density
     ---------------------------------

     L   x y z        total         alpha         beta         nuclear
     -   - - -        -----         -----         ----         -------
     0   0 0 0     -0.000000    -40.000000    -39.000000     79.000000

     1   1 0 0     -0.044458      4.189543      4.110703     -8.344703
     1   0 1 0     -0.031456      1.366328      1.272915     -2.670700
     1   0 0 1      0.816679   -105.852360   -105.347232    212.016271

     2   2 0 0    -42.748580   -162.885176   -160.507303    280.643899
     2   1 1 0     -1.340734    -16.297364    -15.135280     30.091910
     2   1 0 1     -0.176243     10.469579     10.072536    -20.718358
     2   0 2 0    -44.383292   -182.285189   -178.546046    316.447943
     2   0 1 1     -0.262038     -0.273430     -0.640778      0.652170

 Total times  cpu:      344.4s     wall:      349.4s
