         Total DFT energy =     -699.952413455229
@ Step       Energy      Delta E   Gmax     Grms     Xrms     Xmax   Walltime
@ ---- ---------------- -------- -------- -------- -------- -------- --------
@    0    -699.95241346  0.0D+00  0.00036  0.00015  0.00000  0.00000     92.4
         Total DFT energy =     -699.952413458970
         Total DFT energy =   -699.952413458970
@    1    -699.95241346 -3.7D-09  0.00049  0.00020  0.00890  0.01921    146.0
         Total DFT energy =     -699.952413128243
         Total DFT energy =   -699.952413128243
@    2    -699.95241313  3.3D-07  0.00087  0.00027  0.00236  0.00530    185.5
         Total DFT energy =     -699.952413971084
         Total DFT energy =   -699.952413971084
@    3    -699.95241397 -8.4D-07  0.00016  0.00007  0.00118  0.00367    215.5
         Total DFT energy =     -699.952413995286
         Total DFT energy =   -699.952413995286
@    4    -699.95241400 -2.4D-08  0.00004  0.00002  0.00146  0.00319    250.2
         Total DFT energy =     -699.952413886560
         Total DFT energy =   -699.952413886560
@    5    -699.95241389  1.1D-07  0.00009  0.00003  0.00175  0.00405    285.1
         Total DFT energy =     -699.952414070625
         Total DFT energy =   -699.952414070625
@    6    -699.95241407 -1.8D-07  0.00005  0.00002  0.00095  0.00261    315.1
         Total DFT energy =     -699.952413855689
         Total DFT energy =   -699.952413855689
@    7    -699.95241386  2.1D-07  0.00006  0.00002  0.00087  0.00186    345.0
         Total DFT energy =     -699.952413925098

                       DFT Final Molecular Orbital Analysis
                       ------------------------------------

 Vector    1  Occ=2.000000D+00  E=-8.832702D+01

 Vector  250  Occ=0.000000D+00  E= 5.563950D+00

 Vector  251  Occ=0.000000D+00  E= 5.700485D+00

 Vector  252  Occ=0.000000D+00  E= 5.730086D+00

 Vector  253  Occ=0.000000D+00  E= 5.919676D+00

 Vector  254  Occ=0.000000D+00  E= 5.967324D+00

 Vector  255  Occ=0.000000D+00  E= 6.002124D+00

 Vector  256  Occ=0.000000D+00  E= 6.057858D+00

 Vector  257  Occ=0.000000D+00  E= 6.073212D+00

 Vector  258  Occ=0.000000D+00  E= 6.095791D+00

 Vector  259  Occ=0.000000D+00  E= 6.096383D+00

 Vector  260  Occ=0.000000D+00  E= 6.132149D+00

 Vector  261  Occ=0.000000D+00  E= 6.162578D+00

 Vector  262  Occ=0.000000D+00  E= 6.186871D+00

 Vector  263  Occ=0.000000D+00  E= 6.194135D+00

 Vector  264  Occ=0.000000D+00  E= 6.217465D+00

 Vector  265  Occ=0.000000D+00  E= 6.218859D+00

 Vector  266  Occ=0.000000D+00  E= 6.259839D+00

 Vector  267  Occ=0.000000D+00  E= 6.261145D+00

 Vector  268  Occ=0.000000D+00  E= 6.295348D+00

 Vector  269  Occ=0.000000D+00  E= 6.320422D+00

 Vector  270  Occ=0.000000D+00  E= 6.328238D+00

 Vector  271  Occ=0.000000D+00  E= 6.335742D+00

 Vector  272  Occ=0.000000D+00  E= 6.400775D+00

 Vector  273  Occ=0.000000D+00  E= 6.420071D+00

 Vector  274  Occ=0.000000D+00  E= 6.451920D+00

 Vector  275  Occ=0.000000D+00  E= 6.466072D+00

 Vector  276  Occ=0.000000D+00  E= 6.480710D+00

 Vector  277  Occ=0.000000D+00  E= 6.497969D+00

 Vector  278  Occ=0.000000D+00  E= 6.517870D+00

 Vector  279  Occ=0.000000D+00  E= 6.526618D+00

 Vector  280  Occ=0.000000D+00  E= 6.547200D+00

 Vector  281  Occ=0.000000D+00  E= 6.564670D+00

 Vector  282  Occ=0.000000D+00  E= 6.568070D+00

 Vector  283  Occ=0.000000D+00  E= 6.607728D+00

 Vector  284  Occ=0.000000D+00  E= 6.608023D+00

 Vector  285  Occ=0.000000D+00  E= 6.620693D+00

 Vector  286  Occ=0.000000D+00  E= 6.633799D+00

 Vector  287  Occ=0.000000D+00  E= 6.634278D+00

 Vector  288  Occ=0.000000D+00  E= 6.676216D+00

 Vector  289  Occ=0.000000D+00  E= 6.705412D+00

 Vector  290  Occ=0.000000D+00  E= 6.707551D+00

 Vector  291  Occ=0.000000D+00  E= 6.785647D+00

 Vector  292  Occ=0.000000D+00  E= 6.877969D+00

 Vector  293  Occ=0.000000D+00  E= 6.900727D+00

 Vector  294  Occ=0.000000D+00  E= 6.982334D+00

 Vector  295  Occ=0.000000D+00  E= 7.146130D+00

 Vector  296  Occ=0.000000D+00  E= 7.183754D+00

 Vector  297  Occ=0.000000D+00  E= 7.191807D+00

 Vector  298  Occ=0.000000D+00  E= 7.238357D+00

 Vector  299  Occ=0.000000D+00  E= 7.299527D+00

 Vector  300  Occ=0.000000D+00  E= 7.303446D+00

 Vector  301  Occ=0.000000D+00  E= 7.464425D+00

 Vector  302  Occ=0.000000D+00  E= 7.471199D+00

 Vector  303  Occ=0.000000D+00  E= 7.700915D+00

 Vector  304  Occ=0.000000D+00  E= 7.881677D+00

 Vector  305  Occ=0.000000D+00  E= 7.968453D+00

 Vector  306  Occ=0.000000D+00  E= 8.367174D+00

 Vector  307  Occ=0.000000D+00  E= 8.579461D+00

 Vector  308  Occ=0.000000D+00  E= 8.858388D+00

 Vector  309  Occ=0.000000D+00  E= 1.282726D+01

 Vector  310  Occ=0.000000D+00  E= 1.324920D+01

 Vector  311  Occ=0.000000D+00  E= 1.343985D+01

 Vector  312  Occ=0.000000D+00  E= 1.371248D+01

 Vector  313  Occ=0.000000D+00  E= 1.379761D+01

 Vector  314  Occ=0.000000D+00  E= 1.389551D+01

 Vector  315  Occ=0.000000D+00  E= 1.411370D+01

 Vector  316  Occ=0.000000D+00  E= 1.418490D+01

 Vector  317  Occ=0.000000D+00  E= 1.446135D+01

 Vector  318  Occ=0.000000D+00  E= 1.447373D+01

 Vector  319  Occ=0.000000D+00  E= 1.516050D+01

 Vector  320  Occ=0.000000D+00  E= 1.528944D+01

 Vector  321  Occ=0.000000D+00  E= 1.613754D+01

 Vector  322  Occ=0.000000D+00  E= 1.643632D+01

 Vector  323  Occ=0.000000D+00  E= 1.657699D+01

 Vector  324  Occ=0.000000D+00  E= 1.660639D+01

 Vector  325  Occ=0.000000D+00  E= 1.707517D+01

 Vector  326  Occ=0.000000D+00  E= 1.731863D+01

 Vector  327  Occ=0.000000D+00  E= 1.741594D+01

 Vector  328  Occ=0.000000D+00  E= 1.777332D+01

 Vector  329  Occ=0.000000D+00  E= 3.332648D+01

     Multipole analysis of the density
     ---------------------------------

     L   x y z        total         alpha         beta         nuclear
     -   - - -        -----         -----         ----         -------
     0   0 0 0     -0.000000    -25.000000    -25.000000     50.000000

     1   1 0 0      0.999382      3.620583      3.620583     -6.241784
     1   0 1 0      0.921409     -0.182592     -0.182592      1.286594
     1   0 0 1      0.413713     -1.359470     -1.359470      3.132654

     2   2 0 0    -27.921169    -64.056362    -64.056362    100.191555
     2   1 1 0      1.980300     -0.626678     -0.626678      3.233655
     2   1 0 1      1.558503     -0.390668     -0.390668      2.339839
     2   0 2 0    -25.710721    -60.830076    -60.830076     95.949431
     2   0 1 1     -1.472543      3.073621      3.073621     -7.619785

         Total DFT energy =   -699.952413925098
@    8    -699.95241393 -6.9D-08  0.00023  0.00007  0.00070  0.00154    370.3
@    8    -699.95241393 -6.9D-08  0.00023  0.00007  0.00070  0.00154    370.3

 Output coordinates in angstroms (scale by  1.889725989 to convert to a.u.)

  No.       Tag          Charge          X              Y              Z
 ---- ---------------- ---------- -------------- -------------- --------------
    1 S                   16.0000    -0.08584319    -0.12660499    -0.04252231
    2 O                    8.0000    -0.27232416     1.37822164    -0.64401261
    3 O                    8.0000     1.23424213    -0.61065061    -0.43397568
    4 O                    8.0000    -0.06685487     0.15568921     1.56386760
    5 O                    8.0000    -1.32213396    -0.81814001    -0.30954271
    6 H                    1.0000     0.87151111     0.17642922     1.83745719
    7 H                    1.0000     0.61553668     1.68912478    -0.91006373

 Total times  cpu:      364.8s     wall:      370.3s
