         Total DFT energy =     -643.866056875036
@ Step       Energy      Delta E   Gmax     Grms     Xrms     Xmax   Walltime
@ ---- ---------------- -------- -------- -------- -------- -------- --------
@    0    -643.86605688  0.0D+00  0.00038  0.00018  0.00000  0.00000    107.5
         Total DFT energy =     -643.866059467660
         Total DFT energy =   -643.866059467660
@    1    -643.86605947 -2.6D-06  0.00027  0.00014  0.00481  0.01257    158.3
         Total DFT energy =     -643.866060969012
         Total DFT energy =   -643.866060969012
@    2    -643.86606097 -1.5D-06  0.00025  0.00013  0.00716  0.01865    215.1
         Total DFT energy =     -643.866060850049
         Total DFT energy =   -643.866060850049
@    3    -643.86606085  1.2D-07  0.00023  0.00010  0.00104  0.00267    243.9
         Total DFT energy =     -643.866061222873

                       DFT Final Molecular Orbital Analysis
                       ------------------------------------

 Vector    1  Occ=2.000000D+00  E=-7.644572D+01

 Vector  275  Occ=0.000000D+00  E= 5.650109D+00

 Vector  276  Occ=0.000000D+00  E= 5.976995D+00

 Vector  277  Occ=0.000000D+00  E= 6.061151D+00

 Vector  278  Occ=0.000000D+00  E= 6.105584D+00

 Vector  279  Occ=0.000000D+00  E= 6.131617D+00

 Vector  280  Occ=0.000000D+00  E= 6.132733D+00

 Vector  281  Occ=0.000000D+00  E= 6.150436D+00

 Vector  282  Occ=0.000000D+00  E= 6.178979D+00

 Vector  283  Occ=0.000000D+00  E= 6.186829D+00

 Vector  284  Occ=0.000000D+00  E= 6.208195D+00

 Vector  285  Occ=0.000000D+00  E= 6.232136D+00

 Vector  286  Occ=0.000000D+00  E= 6.249442D+00

 Vector  287  Occ=0.000000D+00  E= 6.260072D+00

 Vector  288  Occ=0.000000D+00  E= 6.267076D+00

 Vector  289  Occ=0.000000D+00  E= 6.299286D+00

 Vector  290  Occ=0.000000D+00  E= 6.314097D+00

 Vector  291  Occ=0.000000D+00  E= 6.330604D+00

 Vector  292  Occ=0.000000D+00  E= 6.345514D+00

 Vector  293  Occ=0.000000D+00  E= 6.370201D+00

 Vector  294  Occ=0.000000D+00  E= 6.397622D+00

 Vector  295  Occ=0.000000D+00  E= 6.428570D+00

 Vector  296  Occ=0.000000D+00  E= 6.444222D+00

 Vector  297  Occ=0.000000D+00  E= 6.455604D+00

 Vector  298  Occ=0.000000D+00  E= 6.536739D+00

 Vector  299  Occ=0.000000D+00  E= 6.564924D+00

 Vector  300  Occ=0.000000D+00  E= 6.576233D+00

 Vector  301  Occ=0.000000D+00  E= 6.582151D+00

 Vector  302  Occ=0.000000D+00  E= 6.596575D+00

 Vector  303  Occ=0.000000D+00  E= 6.616865D+00

 Vector  304  Occ=0.000000D+00  E= 6.635535D+00

 Vector  305  Occ=0.000000D+00  E= 6.639298D+00

 Vector  306  Occ=0.000000D+00  E= 6.656605D+00

 Vector  307  Occ=0.000000D+00  E= 6.665965D+00

 Vector  308  Occ=0.000000D+00  E= 6.688608D+00

 Vector  309  Occ=0.000000D+00  E= 6.695100D+00

 Vector  310  Occ=0.000000D+00  E= 6.736341D+00

 Vector  311  Occ=0.000000D+00  E= 6.770023D+00

 Vector  312  Occ=0.000000D+00  E= 6.811592D+00

 Vector  313  Occ=0.000000D+00  E= 6.828311D+00

 Vector  314  Occ=0.000000D+00  E= 6.843410D+00

 Vector  315  Occ=0.000000D+00  E= 6.885300D+00

 Vector  316  Occ=0.000000D+00  E= 6.912410D+00

 Vector  317  Occ=0.000000D+00  E= 6.981134D+00

 Vector  318  Occ=0.000000D+00  E= 7.051179D+00

 Vector  319  Occ=0.000000D+00  E= 7.079751D+00

 Vector  320  Occ=0.000000D+00  E= 7.142790D+00

 Vector  321  Occ=0.000000D+00  E= 7.169480D+00

 Vector  322  Occ=0.000000D+00  E= 7.187781D+00

 Vector  323  Occ=0.000000D+00  E= 7.242128D+00

 Vector  324  Occ=0.000000D+00  E= 7.444507D+00

 Vector  325  Occ=0.000000D+00  E= 7.664080D+00

 Vector  326  Occ=0.000000D+00  E= 7.677243D+00

 Vector  327  Occ=0.000000D+00  E= 7.853450D+00

 Vector  328  Occ=0.000000D+00  E= 8.093587D+00

 Vector  329  Occ=0.000000D+00  E= 8.110759D+00

 Vector  330  Occ=0.000000D+00  E= 8.292669D+00

 Vector  331  Occ=0.000000D+00  E= 8.618652D+00

 Vector  332  Occ=0.000000D+00  E= 8.674686D+00

 Vector  333  Occ=0.000000D+00  E= 8.818338D+00

 Vector  334  Occ=0.000000D+00  E= 1.262461D+01

 Vector  335  Occ=0.000000D+00  E= 1.370594D+01

 Vector  336  Occ=0.000000D+00  E= 1.382599D+01

 Vector  337  Occ=0.000000D+00  E= 1.388016D+01

 Vector  338  Occ=0.000000D+00  E= 1.392324D+01

 Vector  339  Occ=0.000000D+00  E= 1.396261D+01

 Vector  340  Occ=0.000000D+00  E= 1.416069D+01

 Vector  341  Occ=0.000000D+00  E= 1.444054D+01

 Vector  342  Occ=0.000000D+00  E= 1.445074D+01

 Vector  343  Occ=0.000000D+00  E= 1.518058D+01

 Vector  344  Occ=0.000000D+00  E= 1.527623D+01

 Vector  345  Occ=0.000000D+00  E= 1.537076D+01

 Vector  346  Occ=0.000000D+00  E= 1.616919D+01

 Vector  347  Occ=0.000000D+00  E= 1.636326D+01

 Vector  348  Occ=0.000000D+00  E= 1.665898D+01

 Vector  349  Occ=0.000000D+00  E= 1.685567D+01

 Vector  350  Occ=0.000000D+00  E= 1.717522D+01

 Vector  351  Occ=0.000000D+00  E= 1.729653D+01

 Vector  352  Occ=0.000000D+00  E= 1.766543D+01

 Vector  353  Occ=0.000000D+00  E= 1.835848D+01

 Vector  354  Occ=0.000000D+00  E= 2.340258D+01

     Multipole analysis of the density
     ---------------------------------

     L   x y z        total         alpha         beta         nuclear
     -   - - -        -----         -----         ----         -------
     0   0 0 0     -0.000000    -25.000000    -25.000000     50.000000

     1   1 0 0      1.035083     -3.690716     -3.690716      8.416515
     1   0 1 0      0.312939     -7.659308     -7.659308     15.631555
     1   0 0 1      0.600165     -4.297206     -4.297206      9.194576

     2   2 0 0    -27.679184    -67.657327    -67.657327    107.635470
     2   1 1 0     -1.098376     -0.659377     -0.659377      0.220378
     2   1 0 1     -3.187187     -2.297120     -2.297120      1.407053
     2   0 2 0    -24.374682    -73.553833    -73.553833    122.732984
     2   0 1 1     -1.278348     -3.359131     -3.359131      5.439914

         Total DFT energy =   -643.866061222873
@    4    -643.86606122 -3.7D-07  0.00018  0.00009  0.00048  0.00128    272.6
@    4    -643.86606122 -3.7D-07  0.00018  0.00009  0.00048  0.00128    272.6

 Output coordinates in angstroms (scale by  1.889725989 to convert to a.u.)

  No.       Tag          Charge          X              Y              Z
 ---- ---------------- ---------- -------------- -------------- --------------
    1 P                   15.0000    -0.01091106     0.07819358     0.04210801
    2 O                    8.0000    -0.04919152     1.45475993    -0.79334135
    3 O                    8.0000     1.55795142    -0.36279053     0.11851336
    4 O                    8.0000    -0.25201520     0.63499300     1.54378966
    5 O                    8.0000    -0.92170580    -0.96027525    -0.49183249
    6 H                    1.0000     1.72384002    -1.07139786    -0.52844912
    7 H                    1.0000    -0.34241218    -0.09252212     2.18396185
    8 H                    1.0000     0.55575534     2.12938225    -0.43860592

 Total times  cpu:      269.3s     wall:      272.7s
