 Output coordinates in angstroms (scale by  1.889725989 to convert to a.u.)

  No.       Tag          Charge          X              Y              Z
 ---- ---------------- ---------- -------------- -------------- --------------
    1 P                   15.0000    -0.02632344     0.06402140    -0.06240298
    2 O                    8.0000    -0.07254596     1.54356797    -0.52273589
    3 O                    8.0000     1.34911174    -0.65953760    -0.26106562
    4 O                    8.0000    -0.04447960     0.14919821     1.72346066
    5 O                    8.0000    -1.27839989    -0.77528623    -0.42409005
    6 H                    1.0000     0.81211515    -0.28933075     1.86449488

         Total DFT energy =     -642.676561108467

                    DFT Final Alpha Molecular Orbital Analysis
                    ------------------------------------------

 Vector    1  Occ=1.000000D+00  E=-7.623118D+01

 Vector  225  Occ=0.000000D+00  E= 5.450359D+00

 Vector  226  Occ=0.000000D+00  E= 5.606366D+00

 Vector  227  Occ=0.000000D+00  E= 5.781738D+00

 Vector  228  Occ=0.000000D+00  E= 5.800753D+00

 Vector  229  Occ=0.000000D+00  E= 6.047708D+00

 Vector  230  Occ=0.000000D+00  E= 6.065785D+00

 Vector  231  Occ=0.000000D+00  E= 6.212717D+00

 Vector  232  Occ=0.000000D+00  E= 6.216803D+00

 Vector  233  Occ=0.000000D+00  E= 6.269000D+00

 Vector  234  Occ=0.000000D+00  E= 6.271010D+00

 Vector  235  Occ=0.000000D+00  E= 6.299865D+00

 Vector  236  Occ=0.000000D+00  E= 6.327386D+00

 Vector  237  Occ=0.000000D+00  E= 6.328937D+00

 Vector  238  Occ=0.000000D+00  E= 6.349095D+00

 Vector  239  Occ=0.000000D+00  E= 6.394889D+00

 Vector  240  Occ=0.000000D+00  E= 6.417155D+00

 Vector  241  Occ=0.000000D+00  E= 6.430299D+00

 Vector  242  Occ=0.000000D+00  E= 6.430546D+00

 Vector  243  Occ=0.000000D+00  E= 6.440472D+00

 Vector  244  Occ=0.000000D+00  E= 6.475153D+00

 Vector  245  Occ=0.000000D+00  E= 6.480873D+00

 Vector  246  Occ=0.000000D+00  E= 6.491329D+00

 Vector  247  Occ=0.000000D+00  E= 6.525517D+00

 Vector  248  Occ=0.000000D+00  E= 6.547592D+00

 Vector  249  Occ=0.000000D+00  E= 6.552754D+00

 Vector  250  Occ=0.000000D+00  E= 6.566186D+00

 Vector  251  Occ=0.000000D+00  E= 6.589970D+00

 Vector  252  Occ=0.000000D+00  E= 6.601555D+00

 Vector  253  Occ=0.000000D+00  E= 6.610646D+00

 Vector  254  Occ=0.000000D+00  E= 6.626244D+00

 Vector  255  Occ=0.000000D+00  E= 6.669202D+00

 Vector  256  Occ=0.000000D+00  E= 6.697899D+00

 Vector  257  Occ=0.000000D+00  E= 6.706598D+00

 Vector  258  Occ=0.000000D+00  E= 6.716520D+00

 Vector  259  Occ=0.000000D+00  E= 6.758114D+00

 Vector  260  Occ=0.000000D+00  E= 6.769510D+00

 Vector  261  Occ=0.000000D+00  E= 6.771237D+00

 Vector  262  Occ=0.000000D+00  E= 6.812403D+00

 Vector  263  Occ=0.000000D+00  E= 6.836757D+00

 Vector  264  Occ=0.000000D+00  E= 6.856407D+00

 Vector  265  Occ=0.000000D+00  E= 6.865156D+00

 Vector  266  Occ=0.000000D+00  E= 6.866504D+00

 Vector  267  Occ=0.000000D+00  E= 6.884888D+00

 Vector  268  Occ=0.000000D+00  E= 6.982335D+00

 Vector  269  Occ=0.000000D+00  E= 7.071831D+00

 Vector  270  Occ=0.000000D+00  E= 7.097353D+00

 Vector  271  Occ=0.000000D+00  E= 7.121718D+00

 Vector  272  Occ=0.000000D+00  E= 7.164816D+00

 Vector  273  Occ=0.000000D+00  E= 7.182401D+00

 Vector  274  Occ=0.000000D+00  E= 7.238877D+00

 Vector  275  Occ=0.000000D+00  E= 7.340435D+00

 Vector  276  Occ=0.000000D+00  E= 7.469767D+00

 Vector  277  Occ=0.000000D+00  E= 7.475023D+00

 Vector  278  Occ=0.000000D+00  E= 7.492756D+00

 Vector  279  Occ=0.000000D+00  E= 7.651924D+00

 Vector  280  Occ=0.000000D+00  E= 8.098614D+00

 Vector  281  Occ=0.000000D+00  E= 8.357914D+00

 Vector  282  Occ=0.000000D+00  E= 8.372431D+00

 Vector  283  Occ=0.000000D+00  E= 8.711811D+00

 Vector  284  Occ=0.000000D+00  E= 1.219343D+01

 Vector  285  Occ=0.000000D+00  E= 1.252664D+01

 Vector  286  Occ=0.000000D+00  E= 1.274572D+01

 Vector  287  Occ=0.000000D+00  E= 1.359232D+01

 Vector  288  Occ=0.000000D+00  E= 1.369279D+01

 Vector  289  Occ=0.000000D+00  E= 1.374013D+01

 Vector  290  Occ=0.000000D+00  E= 1.381008D+01

 Vector  291  Occ=0.000000D+00  E= 1.387681D+01

 Vector  292  Occ=0.000000D+00  E= 1.401706D+01

 Vector  293  Occ=0.000000D+00  E= 1.405159D+01

 Vector  294  Occ=0.000000D+00  E= 1.420536D+01

 Vector  295  Occ=0.000000D+00  E= 1.509027D+01

 Vector  296  Occ=0.000000D+00  E= 1.568936D+01

 Vector  297  Occ=0.000000D+00  E= 1.595302D+01

 Vector  298  Occ=0.000000D+00  E= 1.603629D+01

 Vector  299  Occ=0.000000D+00  E= 1.689995D+01

 Vector  300  Occ=0.000000D+00  E= 1.705378D+01

 Vector  301  Occ=0.000000D+00  E= 1.707458D+01

 Vector  302  Occ=0.000000D+00  E= 1.729238D+01

 Vector  303  Occ=0.000000D+00  E= 1.796023D+01

 Vector  304  Occ=0.000000D+00  E= 2.123826D+01

     Multipole analysis of the density
     ---------------------------------

     L   x y z        total         alpha         beta         nuclear
     -   - - -        -----         -----         ----         -------
     0   0 0 0     -1.000000    -25.000000    -24.000000     48.000000

     1   1 0 0      0.349587      0.146203      0.115033      0.088352
     1   0 1 0     -0.274328     -2.762483     -2.679356      5.167511
     1   0 0 1      0.168746     -4.294352     -5.085692      9.548791

     2   2 0 0    -32.812067    -69.501610    -64.597004    101.286546
     2   1 1 0     -0.352436      0.509633      0.560960     -1.423029
     2   1 0 1      1.530519     -4.313899     -3.970768      9.815187
     2   0 2 0    -33.556904    -68.661213    -63.716180     98.820490
     2   0 1 1     -0.686469      1.643298      1.203878     -3.533645

 Total times  cpu:       69.5s     wall:       71.1s
