 Output coordinates in angstroms (scale by  1.889725989 to convert to a.u.)

  No.       Tag          Charge          X              Y              Z
 ---- ---------------- ---------- -------------- -------------- --------------
    1 C                    6.0000     0.00247296     0.00137558    -0.05190866
    2 C                    6.0000    -0.04450951     0.00557053     1.54184831
    3 O                    8.0000     0.58166064     0.98432911    -0.56322479
    4 O                    8.0000    -0.54679275    -1.01296272    -0.53798560
    5 F                    9.0000     0.39986057     1.15929019     2.13146371
    6 F                    9.0000    -1.31127490    -0.19281190     2.03821512
    7 F                    9.0000     0.72972599    -1.00151679     2.07669890

         Total DFT energy =     -525.825930302643

                    DFT Final Alpha Molecular Orbital Analysis
                    ------------------------------------------

 Vector    1  Occ=1.000000D+00  E=-2.434111D+01

 Vector  306  Occ=0.000000D+00  E= 7.185853D+00

 Vector  307  Occ=0.000000D+00  E= 7.210714D+00

 Vector  308  Occ=0.000000D+00  E= 7.403292D+00

 Vector  309  Occ=0.000000D+00  E= 7.489076D+00

 Vector  310  Occ=0.000000D+00  E= 7.636783D+00

 Vector  311  Occ=0.000000D+00  E= 7.714582D+00

 Vector  312  Occ=0.000000D+00  E= 7.861645D+00

 Vector  313  Occ=0.000000D+00  E= 7.895938D+00

 Vector  314  Occ=0.000000D+00  E= 7.954797D+00

 Vector  315  Occ=0.000000D+00  E= 8.090350D+00

 Vector  316  Occ=0.000000D+00  E= 8.225851D+00

 Vector  317  Occ=0.000000D+00  E= 8.241589D+00

 Vector  318  Occ=0.000000D+00  E= 8.243937D+00

 Vector  319  Occ=0.000000D+00  E= 8.269715D+00

 Vector  320  Occ=0.000000D+00  E= 8.351876D+00

 Vector  321  Occ=0.000000D+00  E= 8.365979D+00

 Vector  322  Occ=0.000000D+00  E= 8.393944D+00

 Vector  323  Occ=0.000000D+00  E= 8.407060D+00

 Vector  324  Occ=0.000000D+00  E= 8.445195D+00

 Vector  325  Occ=0.000000D+00  E= 8.499371D+00

 Vector  326  Occ=0.000000D+00  E= 8.540344D+00

 Vector  327  Occ=0.000000D+00  E= 8.569501D+00

 Vector  328  Occ=0.000000D+00  E= 8.608742D+00

 Vector  329  Occ=0.000000D+00  E= 8.612657D+00

 Vector  330  Occ=0.000000D+00  E= 8.619543D+00

 Vector  331  Occ=0.000000D+00  E= 8.624061D+00

 Vector  332  Occ=0.000000D+00  E= 8.634977D+00

 Vector  333  Occ=0.000000D+00  E= 8.648045D+00

 Vector  334  Occ=0.000000D+00  E= 8.691998D+00

 Vector  335  Occ=0.000000D+00  E= 8.726929D+00

 Vector  336  Occ=0.000000D+00  E= 8.737466D+00

 Vector  337  Occ=0.000000D+00  E= 8.759860D+00

 Vector  338  Occ=0.000000D+00  E= 8.770463D+00

 Vector  339  Occ=0.000000D+00  E= 8.818533D+00

 Vector  340  Occ=0.000000D+00  E= 8.826443D+00

 Vector  341  Occ=0.000000D+00  E= 8.848576D+00

 Vector  342  Occ=0.000000D+00  E= 8.878197D+00

 Vector  343  Occ=0.000000D+00  E= 8.898790D+00

 Vector  344  Occ=0.000000D+00  E= 8.980391D+00

 Vector  345  Occ=0.000000D+00  E= 8.992738D+00

 Vector  346  Occ=0.000000D+00  E= 9.004090D+00

 Vector  347  Occ=0.000000D+00  E= 9.033413D+00

 Vector  348  Occ=0.000000D+00  E= 9.062411D+00

 Vector  349  Occ=0.000000D+00  E= 9.162657D+00

 Vector  350  Occ=0.000000D+00  E= 9.188511D+00

 Vector  351  Occ=0.000000D+00  E= 9.437255D+00

 Vector  352  Occ=0.000000D+00  E= 9.523539D+00

 Vector  353  Occ=0.000000D+00  E= 9.539441D+00

 Vector  354  Occ=0.000000D+00  E= 9.794315D+00

 Vector  355  Occ=0.000000D+00  E= 1.003121D+01

 Vector  356  Occ=0.000000D+00  E= 1.004939D+01

 Vector  357  Occ=0.000000D+00  E= 1.008708D+01

 Vector  358  Occ=0.000000D+00  E= 1.015562D+01

 Vector  359  Occ=0.000000D+00  E= 1.334035D+01

 Vector  360  Occ=0.000000D+00  E= 1.354081D+01

 Vector  361  Occ=0.000000D+00  E= 1.397189D+01

 Vector  362  Occ=0.000000D+00  E= 1.430792D+01

 Vector  363  Occ=0.000000D+00  E= 1.478474D+01

 Vector  364  Occ=0.000000D+00  E= 1.493398D+01

 Vector  365  Occ=0.000000D+00  E= 1.579956D+01

 Vector  366  Occ=0.000000D+00  E= 1.602571D+01

 Vector  367  Occ=0.000000D+00  E= 1.651495D+01

 Vector  368  Occ=0.000000D+00  E= 1.661254D+01

 Vector  369  Occ=0.000000D+00  E= 1.707863D+01

 Vector  370  Occ=0.000000D+00  E= 1.796639D+01

 Vector  371  Occ=0.000000D+00  E= 1.830758D+01

 Vector  372  Occ=0.000000D+00  E= 1.840583D+01

 Vector  373  Occ=0.000000D+00  E= 1.865260D+01

 Vector  374  Occ=0.000000D+00  E= 1.874622D+01

 Vector  375  Occ=0.000000D+00  E= 1.885457D+01

 Vector  376  Occ=0.000000D+00  E= 1.909347D+01

 Vector  377  Occ=0.000000D+00  E= 1.918391D+01

 Vector  378  Occ=0.000000D+00  E= 2.113010D+01

 Vector  379  Occ=0.000000D+00  E= 2.145108D+01

 Vector  380  Occ=0.000000D+00  E= 2.172712D+01

 Vector  381  Occ=0.000000D+00  E= 2.331025D+01

 Vector  382  Occ=0.000000D+00  E= 2.358265D+01

 Vector  383  Occ=0.000000D+00  E= 2.388923D+01

 Vector  384  Occ=0.000000D+00  E= 2.732436D+01

 Vector  385  Occ=0.000000D+00  E= 2.890536D+01

     Multipole analysis of the density
     ---------------------------------

     L   x y z        total         alpha         beta         nuclear
     -   - - -        -----         -----         ----         -------
     0   0 0 0     -0.000000    -28.000000    -27.000000     55.000000

     1   1 0 0     -0.008881      1.517593      1.513096     -3.039570
     1   0 1 0      0.020306      0.514002      0.456342     -0.950038
     1   0 0 1      0.209407    -53.043021    -53.228632    106.481060

     2   2 0 0    -27.539077    -62.366129    -60.937778     95.764831
     2   1 1 0     -1.267681    -17.212814    -15.765565     31.710698
     2   1 0 1      0.029360      6.190101      6.068733    -12.229474
     2   0 2 0    -29.067317    -82.933649    -79.754575    133.620907
     2   0 1 1     -0.007792      0.092282      0.046741     -0.146815

 Total times  cpu:      172.9s     wall:      175.3s
