 Output coordinates in angstroms (scale by  1.889725989 to convert to a.u.)

  No.       Tag          Charge          X              Y              Z
 ---- ---------------- ---------- -------------- -------------- --------------
    1 O                    8.0000     0.84297865    -0.08177103     0.09641654
    2 O                    8.0000     1.80806872     1.28670183    -2.58944976
    3 O                    8.0000     0.20092852     2.10147076     0.01435325
    4 O                    8.0000    -0.37069421     0.64124506    -2.73605095
    5 C                    6.0000     0.56338280     1.00065526    -0.51468751
    6 C                    6.0000     0.67737352     0.97422612    -2.09266257

         Total DFT energy =     -376.944895858066

                    DFT Final Alpha Molecular Orbital Analysis
                    ------------------------------------------

 Vector    1  Occ=1.000000D+00  E=-1.859267D+01

 Vector  251  Occ=0.000000D+00  E= 6.226122D+00

 Vector  252  Occ=0.000000D+00  E= 6.226152D+00

 Vector  253  Occ=0.000000D+00  E= 6.241548D+00

 Vector  254  Occ=0.000000D+00  E= 6.276628D+00

 Vector  255  Occ=0.000000D+00  E= 6.288893D+00

 Vector  256  Occ=0.000000D+00  E= 6.288919D+00

 Vector  257  Occ=0.000000D+00  E= 6.318754D+00

 Vector  258  Occ=0.000000D+00  E= 6.386806D+00

 Vector  259  Occ=0.000000D+00  E= 6.394515D+00

 Vector  260  Occ=0.000000D+00  E= 6.394652D+00

 Vector  261  Occ=0.000000D+00  E= 6.410682D+00

 Vector  262  Occ=0.000000D+00  E= 6.513016D+00

 Vector  263  Occ=0.000000D+00  E= 6.513045D+00

 Vector  264  Occ=0.000000D+00  E= 6.550846D+00

 Vector  265  Occ=0.000000D+00  E= 6.565742D+00

 Vector  266  Occ=0.000000D+00  E= 6.565760D+00

 Vector  267  Occ=0.000000D+00  E= 6.576953D+00

 Vector  268  Occ=0.000000D+00  E= 6.586520D+00

 Vector  269  Occ=0.000000D+00  E= 6.654089D+00

 Vector  270  Occ=0.000000D+00  E= 6.657892D+00

 Vector  271  Occ=0.000000D+00  E= 6.694070D+00

 Vector  272  Occ=0.000000D+00  E= 6.709175D+00

 Vector  273  Occ=0.000000D+00  E= 6.762289D+00

 Vector  274  Occ=0.000000D+00  E= 6.762327D+00

 Vector  275  Occ=0.000000D+00  E= 6.765250D+00

 Vector  276  Occ=0.000000D+00  E= 6.816852D+00

 Vector  277  Occ=0.000000D+00  E= 6.816869D+00

 Vector  278  Occ=0.000000D+00  E= 6.849314D+00

 Vector  279  Occ=0.000000D+00  E= 6.942691D+00

 Vector  280  Occ=0.000000D+00  E= 6.967089D+00

 Vector  281  Occ=0.000000D+00  E= 6.967146D+00

 Vector  282  Occ=0.000000D+00  E= 7.136945D+00

 Vector  283  Occ=0.000000D+00  E= 7.137041D+00

 Vector  284  Occ=0.000000D+00  E= 7.176621D+00

 Vector  285  Occ=0.000000D+00  E= 7.220213D+00

 Vector  286  Occ=0.000000D+00  E= 7.220353D+00

 Vector  287  Occ=0.000000D+00  E= 7.259709D+00

 Vector  288  Occ=0.000000D+00  E= 7.300740D+00

 Vector  289  Occ=0.000000D+00  E= 7.306677D+00

 Vector  290  Occ=0.000000D+00  E= 7.334190D+00

 Vector  291  Occ=0.000000D+00  E= 7.334200D+00

 Vector  292  Occ=0.000000D+00  E= 7.337908D+00

 Vector  293  Occ=0.000000D+00  E= 7.611508D+00

 Vector  294  Occ=0.000000D+00  E= 7.640247D+00

 Vector  295  Occ=0.000000D+00  E= 7.707892D+00

 Vector  296  Occ=0.000000D+00  E= 7.769992D+00

 Vector  297  Occ=0.000000D+00  E= 7.770271D+00

 Vector  298  Occ=0.000000D+00  E= 7.813415D+00

 Vector  299  Occ=0.000000D+00  E= 8.029285D+00

 Vector  300  Occ=0.000000D+00  E= 8.029355D+00

 Vector  301  Occ=0.000000D+00  E= 8.350869D+00

 Vector  302  Occ=0.000000D+00  E= 8.351149D+00

 Vector  303  Occ=0.000000D+00  E= 8.581893D+00

 Vector  304  Occ=0.000000D+00  E= 8.589035D+00

 Vector  305  Occ=0.000000D+00  E= 9.691096D+00

 Vector  306  Occ=0.000000D+00  E= 1.004446D+01

 Vector  307  Occ=0.000000D+00  E= 1.004453D+01

 Vector  308  Occ=0.000000D+00  E= 1.010267D+01

 Vector  309  Occ=0.000000D+00  E= 1.277215D+01

 Vector  310  Occ=0.000000D+00  E= 1.277218D+01

 Vector  311  Occ=0.000000D+00  E= 1.373019D+01

 Vector  312  Occ=0.000000D+00  E= 1.373034D+01

 Vector  313  Occ=0.000000D+00  E= 1.379452D+01

 Vector  314  Occ=0.000000D+00  E= 1.384537D+01

 Vector  315  Occ=0.000000D+00  E= 1.411698D+01

 Vector  316  Occ=0.000000D+00  E= 1.412666D+01

 Vector  317  Occ=0.000000D+00  E= 1.464710D+01

 Vector  318  Occ=0.000000D+00  E= 1.471064D+01

 Vector  319  Occ=0.000000D+00  E= 1.471073D+01

 Vector  320  Occ=0.000000D+00  E= 1.533808D+01

 Vector  321  Occ=0.000000D+00  E= 1.648734D+01

 Vector  322  Occ=0.000000D+00  E= 1.676091D+01

 Vector  323  Occ=0.000000D+00  E= 1.676109D+01

 Vector  324  Occ=0.000000D+00  E= 1.677561D+01

 Vector  325  Occ=0.000000D+00  E= 1.783004D+01

 Vector  326  Occ=0.000000D+00  E= 1.792513D+01

 Vector  327  Occ=0.000000D+00  E= 1.792610D+01

 Vector  328  Occ=0.000000D+00  E= 1.824414D+01

 Vector  329  Occ=0.000000D+00  E= 2.829502D+01

 Vector  330  Occ=0.000000D+00  E= 2.833052D+01

     Multipole analysis of the density
     ---------------------------------

     L   x y z        total         alpha         beta         nuclear
     -   - - -        -----         -----         ----         -------
     0   0 0 0     -1.000000    -23.000000    -22.000000     44.000000

     1   1 0 0     -1.172025    -26.961961    -25.789740     51.579677
     1   0 1 0     -1.864544    -42.900669    -41.035547     82.071671
     1   0 0 1      2.463654     56.662785     54.199232   -108.398364

     2   2 0 0    -31.612840    -85.356015    -81.662679    135.405853
     2   1 1 0     -2.177604    -50.170377    -47.991833     95.984606
     2   1 0 1      3.251810     72.758953     69.453369   -138.960512
     2   0 2 0    -33.689024   -133.324231   -127.555428    227.190634
     2   0 1 1      4.506688    104.196528     99.700208   -199.390048

 Total times  cpu:       81.6s     wall:       83.7s
