         Total DFT energy =    -1606.694084004587
@ Step       Energy      Delta E   Gmax     Grms     Xrms     Xmax   Walltime
@ ---- ---------------- -------- -------- -------- -------- -------- --------
@    0   -1606.69408400  0.0D+00  0.04077  0.01131  0.00000  0.00000    282.2
         Total DFT energy =    -1606.696456443360
         Total DFT energy =    -1606.696529460615
@    1   -1606.69652946 -2.4D-03  0.00857  0.00515  0.02972  0.08907    574.4
         Total DFT energy =    -1606.697886271636
         Total DFT energy =    -1606.697925988587
@    2   -1606.69792599 -1.4D-03  0.01158  0.00522  0.03148  0.07136    840.7
         Total DFT energy =    -1606.696594867544
         Total DFT energy =    -1606.698279659197
@    3   -1606.69827966 -3.5D-04  0.01172  0.00476  0.01361  0.03464   1179.2
         Total DFT energy =    -1606.698891607543
         Total DFT energy =  -1606.698891607543
@    4   -1606.69889161 -6.1D-04  0.00678  0.00233  0.01996  0.03884   1340.8
         Total DFT energy =    -1606.698982199157
         Total DFT energy =    -1606.699014655614
@    5   -1606.69901466 -1.2D-04  0.00163  0.00079  0.00696  0.01632   1577.2
         Total DFT energy =    -1606.699030631527
         Total DFT energy =    -1606.699034729895
@    6   -1606.69903473 -2.0D-05  0.00071  0.00032  0.00390  0.00867   1813.4
         Total DFT energy =    -1606.699036744363
         Total DFT energy =  -1606.699036744363
@    7   -1606.69903674 -2.0D-06  0.00033  0.00016  0.00127  0.00247   1892.3
         Total DFT energy =    -1606.699039643879
         Total DFT energy =  -1606.699039643879
@    8   -1606.69903964 -2.9D-06  0.00034  0.00013  0.00123  0.00239   1993.5
         Total DFT energy =    -1606.699039904355

                       DFT Final Molecular Orbital Analysis
                       ------------------------------------

 Vector    1  Occ=2.000000D+00  E=-1.005704D+02

 Vector  318  Occ=0.000000D+00  E= 4.260777D+00

 Vector  319  Occ=0.000000D+00  E= 4.364494D+00

 Vector  320  Occ=0.000000D+00  E= 4.369008D+00

 Vector  321  Occ=0.000000D+00  E= 4.371914D+00

 Vector  322  Occ=0.000000D+00  E= 4.397880D+00

 Vector  323  Occ=0.000000D+00  E= 4.463456D+00

 Vector  324  Occ=0.000000D+00  E= 4.525548D+00

 Vector  325  Occ=0.000000D+00  E= 4.633203D+00

 Vector  326  Occ=0.000000D+00  E= 4.689494D+00

 Vector  327  Occ=0.000000D+00  E= 4.702612D+00

 Vector  328  Occ=0.000000D+00  E= 4.730391D+00

 Vector  329  Occ=0.000000D+00  E= 4.838555D+00

 Vector  330  Occ=0.000000D+00  E= 4.943345D+00

 Vector  331  Occ=0.000000D+00  E= 5.368552D+00

 Vector  332  Occ=0.000000D+00  E= 5.411335D+00

 Vector  333  Occ=0.000000D+00  E= 5.434738D+00

 Vector  334  Occ=0.000000D+00  E= 5.687030D+00

 Vector  335  Occ=0.000000D+00  E= 5.718863D+00

 Vector  336  Occ=0.000000D+00  E= 5.724845D+00

 Vector  337  Occ=0.000000D+00  E= 5.898794D+00

 Vector  338  Occ=0.000000D+00  E= 5.957628D+00

 Vector  339  Occ=0.000000D+00  E= 5.971449D+00

 Vector  340  Occ=0.000000D+00  E= 5.979926D+00

 Vector  341  Occ=0.000000D+00  E= 6.078409D+00

 Vector  342  Occ=0.000000D+00  E= 6.091574D+00

 Vector  343  Occ=0.000000D+00  E= 6.248235D+00

 Vector  344  Occ=0.000000D+00  E= 6.302648D+00

 Vector  345  Occ=0.000000D+00  E= 6.336936D+00

 Vector  346  Occ=0.000000D+00  E= 6.349198D+00

 Vector  347  Occ=0.000000D+00  E= 6.413357D+00

 Vector  348  Occ=0.000000D+00  E= 6.471113D+00

 Vector  349  Occ=0.000000D+00  E= 6.525367D+00

 Vector  350  Occ=0.000000D+00  E= 6.540201D+00

 Vector  351  Occ=0.000000D+00  E= 6.591303D+00

 Vector  352  Occ=0.000000D+00  E= 6.603408D+00

 Vector  353  Occ=0.000000D+00  E= 6.670004D+00

 Vector  354  Occ=0.000000D+00  E= 6.723070D+00

 Vector  355  Occ=0.000000D+00  E= 6.763252D+00

 Vector  356  Occ=0.000000D+00  E= 6.789308D+00

 Vector  357  Occ=0.000000D+00  E= 6.857070D+00

 Vector  358  Occ=0.000000D+00  E= 6.885961D+00

 Vector  359  Occ=0.000000D+00  E= 6.895200D+00

 Vector  360  Occ=0.000000D+00  E= 7.089222D+00

 Vector  361  Occ=0.000000D+00  E= 7.141092D+00

 Vector  362  Occ=0.000000D+00  E= 7.236643D+00

 Vector  363  Occ=0.000000D+00  E= 7.285608D+00

 Vector  364  Occ=0.000000D+00  E= 7.360230D+00

 Vector  365  Occ=0.000000D+00  E= 7.386347D+00

 Vector  366  Occ=0.000000D+00  E= 7.457789D+00

 Vector  367  Occ=0.000000D+00  E= 7.523045D+00

 Vector  368  Occ=0.000000D+00  E= 7.622120D+00

 Vector  369  Occ=0.000000D+00  E= 7.739415D+00

 Vector  370  Occ=0.000000D+00  E= 7.946156D+00

 Vector  371  Occ=0.000000D+00  E= 8.160739D+00

 Vector  372  Occ=0.000000D+00  E= 8.174803D+00

 Vector  373  Occ=0.000000D+00  E= 8.241920D+00

 Vector  374  Occ=0.000000D+00  E= 8.637974D+00

 Vector  375  Occ=0.000000D+00  E= 8.993482D+00

 Vector  376  Occ=0.000000D+00  E= 9.046915D+00

 Vector  377  Occ=0.000000D+00  E= 9.055964D+00

 Vector  378  Occ=0.000000D+00  E= 9.481234D+00

 Vector  379  Occ=0.000000D+00  E= 9.553626D+00

 Vector  380  Occ=0.000000D+00  E= 9.670128D+00

 Vector  381  Occ=0.000000D+00  E= 1.009770D+01

 Vector  382  Occ=0.000000D+00  E= 1.038486D+01

 Vector  383  Occ=0.000000D+00  E= 1.248841D+01

 Vector  384  Occ=0.000000D+00  E= 1.277450D+01

 Vector  385  Occ=0.000000D+00  E= 1.339104D+01

 Vector  386  Occ=0.000000D+00  E= 1.390427D+01

 Vector  387  Occ=0.000000D+00  E= 1.444744D+01

 Vector  388  Occ=0.000000D+00  E= 1.451168D+01

 Vector  389  Occ=0.000000D+00  E= 1.471747D+01

 Vector  390  Occ=0.000000D+00  E= 1.528852D+01

 Vector  391  Occ=0.000000D+00  E= 1.549731D+01

 Vector  392  Occ=0.000000D+00  E= 1.676407D+01

 Vector  393  Occ=0.000000D+00  E= 1.690167D+01

 Vector  394  Occ=0.000000D+00  E= 1.877297D+01

 Vector  395  Occ=0.000000D+00  E= 1.935553D+01

 Vector  396  Occ=0.000000D+00  E= 2.448560D+01

 Vector  397  Occ=0.000000D+00  E= 2.895990D+01

     Multipole analysis of the density
     ---------------------------------

     L   x y z        total         alpha         beta         nuclear
     -   - - -        -----         -----         ----         -------
     0   0 0 0     -1.000000    -40.000000    -40.000000     79.000000

     1   1 0 0      0.038032      4.191368      4.191368     -8.344703
     1   0 1 0      0.016540      1.343620      1.343620     -2.670700
     1   0 0 1     -0.752387   -106.384329   -106.384329    212.016271

     2   2 0 0    -49.791963   -165.217931   -165.217931    280.643898
     2   1 1 0     -2.410312    -16.251112    -16.251112     30.091911
     2   1 0 1      0.167860     10.443109     10.443109    -20.718358
     2   0 2 0    -52.697715   -184.572829   -184.572829    316.447944
     2   0 1 1     -0.161131     -0.406651     -0.406651      0.652170

         Total DFT energy =  -1606.699039904355
@    9   -1606.69903990 -2.6D-07  0.00014  0.00006  0.00033  0.00093   2070.7
@    9   -1606.69903990 -2.6D-07  0.00014  0.00006  0.00033  0.00093   2070.7

 Output coordinates in angstroms (scale by  1.889725989 to convert to a.u.)

  No.       Tag          Charge          X              Y              Z
 ---- ---------------- ---------- -------------- -------------- --------------
    1 C                    6.0000     0.00452756     0.00338203    -0.10160101
    2 C                    6.0000    -0.04611664     0.00094233     1.54601470
    3 O                    8.0000     0.57581970     0.99153849    -0.58736281
    4 O                    8.0000    -0.55319814    -1.00462730    -0.56680626
    5 Cl                  17.0000     0.77484059     1.41934068     2.32871824
    6 Cl                  17.0000    -1.77833909     0.00563468     2.10892091
    7 Cl                  17.0000     0.74777702    -1.50347590     2.19536423

 Total times  cpu:     2040.0s     wall:     2070.7s
