 Output coordinates in angstroms (scale by  1.889725989 to convert to a.u.)

  No.       Tag          Charge          X              Y              Z
 ---- ---------------- ---------- -------------- -------------- --------------
    1 Cl                  17.0000     0.00000000     0.00000000     0.00000000

         Total DFT energy =     -459.967006354858

                    DFT Final Alpha Molecular Orbital Analysis
                    ------------------------------------------

 Vector    1  Occ=1.000000D+00  E=-1.007553D+02

 Vector   39  Occ=0.000000D+00  E= 2.034271D+00

 Vector   40  Occ=0.000000D+00  E= 2.044326D+00

 Vector   41  Occ=0.000000D+00  E= 2.044326D+00

 Vector   42  Occ=0.000000D+00  E= 2.079541D+00

 Vector   43  Occ=0.000000D+00  E= 2.079541D+00

 Vector   44  Occ=0.000000D+00  E= 2.563962D+00

 Vector   45  Occ=0.000000D+00  E= 2.570290D+00

 Vector   46  Occ=0.000000D+00  E= 2.570290D+00

 Vector   47  Occ=0.000000D+00  E= 2.589568D+00

 Vector   48  Occ=0.000000D+00  E= 2.589568D+00

 Vector   49  Occ=0.000000D+00  E= 2.622410D+00

 Vector   50  Occ=0.000000D+00  E= 2.622410D+00

 Vector   51  Occ=0.000000D+00  E= 2.720726D+00

 Vector   52  Occ=0.000000D+00  E= 2.756602D+00

 Vector   53  Occ=0.000000D+00  E= 2.756602D+00

 Vector   54  Occ=0.000000D+00  E= 3.278328D+00

 Vector   55  Occ=0.000000D+00  E= 5.325405D+00

 Vector   56  Occ=0.000000D+00  E= 5.446815D+00

 Vector   57  Occ=0.000000D+00  E= 5.485819D+00

 Vector   58  Occ=0.000000D+00  E= 5.485819D+00

 Vector   59  Occ=0.000000D+00  E= 8.685408D+00

 Vector    1  Occ=1.000000D+00  E=-1.007499D+02

 Vector    2  Occ=1.000000D+00  E=-9.228737D+00

 Vector    3  Occ=1.000000D+00  E=-7.053826D+00

 Vector    4  Occ=1.000000D+00  E=-7.043208D+00

 Vector    5  Occ=1.000000D+00  E=-7.043208D+00

 Vector    6  Occ=1.000000D+00  E=-7.297877D-01

 Vector    7  Occ=1.000000D+00  E=-2.986837D-01

 Vector    8  Occ=1.000000D+00  E=-2.986837D-01

 Vector    9  Occ=0.000000D+00  E=-2.841254D-01

 Vector   10  Occ=0.000000D+00  E= 1.666270D-02

 Vector   11  Occ=0.000000D+00  E= 5.425300D-02

 Vector   12  Occ=0.000000D+00  E= 5.425301D-02

 Vector   13  Occ=0.000000D+00  E= 5.935850D-02

 Vector   14  Occ=0.000000D+00  E= 1.971727D-01

 Vector   15  Occ=0.000000D+00  E= 1.971727D-01

 Vector   16  Occ=0.000000D+00  E= 1.993798D-01

 Vector   17  Occ=0.000000D+00  E= 1.993798D-01

 Vector   18  Occ=0.000000D+00  E= 2.068294D-01

 Vector   19  Occ=0.000000D+00  E= 3.175717D-01

 Vector   20  Occ=0.000000D+00  E= 3.485686D-01

 Vector   21  Occ=0.000000D+00  E= 3.485686D-01

 Vector   22  Occ=0.000000D+00  E= 3.533409D-01

 Vector   23  Occ=0.000000D+00  E= 6.562001D-01

 Vector   24  Occ=0.000000D+00  E= 6.562001D-01

 Vector   25  Occ=0.000000D+00  E= 6.608452D-01

 Vector   26  Occ=0.000000D+00  E= 6.608452D-01

 Vector   27  Occ=0.000000D+00  E= 6.735152D-01

 Vector   28  Occ=0.000000D+00  E= 9.414100D-01

 Vector   29  Occ=0.000000D+00  E= 9.414100D-01

 Vector   30  Occ=0.000000D+00  E= 9.425333D-01

 Vector   31  Occ=0.000000D+00  E= 9.425333D-01

 Vector   32  Occ=0.000000D+00  E= 9.474752D-01

 Vector   33  Occ=0.000000D+00  E= 9.474752D-01

 Vector   34  Occ=0.000000D+00  E= 9.515548D-01

 Vector   35  Occ=0.000000D+00  E= 1.095773D+00

 Vector   36  Occ=0.000000D+00  E= 1.095773D+00

 Vector   37  Occ=0.000000D+00  E= 1.103213D+00

 Vector   38  Occ=0.000000D+00  E= 1.242580D+00

 Vector   39  Occ=0.000000D+00  E= 2.083550D+00

 Vector   40  Occ=0.000000D+00  E= 2.083550D+00

 Vector   41  Occ=0.000000D+00  E= 2.087429D+00

 Vector   42  Occ=0.000000D+00  E= 2.087429D+00

 Vector   43  Occ=0.000000D+00  E= 2.096840D+00

 Vector   44  Occ=0.000000D+00  E= 2.623346D+00

 Vector   45  Occ=0.000000D+00  E= 2.623346D+00

 Vector   46  Occ=0.000000D+00  E= 2.625751D+00

 Vector   47  Occ=0.000000D+00  E= 2.625751D+00

 Vector   48  Occ=0.000000D+00  E= 2.635472D+00

 Vector   49  Occ=0.000000D+00  E= 2.635472D+00

 Vector   50  Occ=0.000000D+00  E= 2.644113D+00

 Vector   51  Occ=0.000000D+00  E= 2.765033D+00

 Vector   52  Occ=0.000000D+00  E= 2.765033D+00

 Vector   53  Occ=0.000000D+00  E= 2.772397D+00

 Vector   54  Occ=0.000000D+00  E= 3.291991D+00

 Vector   55  Occ=0.000000D+00  E= 5.344939D+00

 Vector   56  Occ=0.000000D+00  E= 5.493844D+00

 Vector   57  Occ=0.000000D+00  E= 5.493844D+00

 Vector   58  Occ=0.000000D+00  E= 5.497307D+00

 Vector   59  Occ=0.000000D+00  E= 8.710586D+00

 Total times  cpu:        1.8s     wall:        2.7s
