         Total DFT energy =     -623.491554396274
@ Step       Energy      Delta E   Gmax     Grms     Xrms     Xmax   Walltime
@ ---- ---------------- -------- -------- -------- -------- -------- --------
@    0    -623.49155440  0.0D+00  0.08865  0.03897  0.00000  0.00000     29.0
         Total DFT energy =     -623.496870464974
         Total DFT energy =     -623.499077552670
@    1    -623.49907755 -7.5D-03  0.02454  0.01377  0.05290  0.14990    157.8
         Total DFT energy =     -623.501768589420
         Total DFT energy =     -623.501933941952
@    2    -623.50193394 -2.9D-03  0.00753  0.00398  0.04414  0.06802    191.2
         Total DFT energy =     -623.502141769207
         Total DFT energy =     -623.502155817802
@    3    -623.50215582 -2.2D-04  0.00067  0.00041  0.01065  0.01597    215.9
         Total DFT energy =     -623.502161278955
         Total DFT energy =     -623.502161256329
@    4    -623.50216126 -5.4D-06  0.00040  0.00019  0.00306  0.00605    236.7
         Total DFT energy =     -623.502162589199

                       DFT Final Molecular Orbital Analysis
                       ------------------------------------

 Vector    1  Occ=2.000000D+00  E=-8.780451D+01

 Vector  145  Occ=0.000000D+00  E= 3.247969D+00

 Vector  146  Occ=0.000000D+00  E= 3.350251D+00

 Vector  147  Occ=0.000000D+00  E= 3.350357D+00

 Vector  148  Occ=0.000000D+00  E= 3.423269D+00

 Vector  149  Occ=0.000000D+00  E= 3.439101D+00

 Vector  150  Occ=0.000000D+00  E= 3.439281D+00

 Vector  151  Occ=0.000000D+00  E= 3.487606D+00

 Vector  152  Occ=0.000000D+00  E= 3.551351D+00

 Vector  153  Occ=0.000000D+00  E= 3.551941D+00

 Vector  154  Occ=0.000000D+00  E= 3.681837D+00

 Vector  155  Occ=0.000000D+00  E= 4.011640D+00

 Vector  156  Occ=0.000000D+00  E= 4.011679D+00

 Vector  157  Occ=0.000000D+00  E= 4.758672D+00

 Vector  158  Occ=0.000000D+00  E= 4.930572D+00

 Vector  159  Occ=0.000000D+00  E= 4.930643D+00

 Vector  160  Occ=0.000000D+00  E= 5.194461D+00

 Vector  161  Occ=0.000000D+00  E= 5.399105D+00

 Vector  162  Occ=0.000000D+00  E= 5.399126D+00

 Vector  163  Occ=0.000000D+00  E= 5.425383D+00

 Vector  164  Occ=0.000000D+00  E= 5.425685D+00

 Vector  165  Occ=0.000000D+00  E= 5.436258D+00

 Vector  166  Occ=0.000000D+00  E= 5.441252D+00

 Vector  167  Occ=0.000000D+00  E= 5.713905D+00

 Vector  168  Occ=0.000000D+00  E= 5.714976D+00

 Vector  169  Occ=0.000000D+00  E= 5.833966D+00

 Vector  170  Occ=0.000000D+00  E= 5.976623D+00

 Vector  171  Occ=0.000000D+00  E= 5.977012D+00

 Vector  172  Occ=0.000000D+00  E= 6.394594D+00

 Vector  173  Occ=0.000000D+00  E= 6.394657D+00

 Vector  174  Occ=0.000000D+00  E= 6.444665D+00

 Vector  175  Occ=0.000000D+00  E= 6.448644D+00

 Vector  176  Occ=0.000000D+00  E= 6.448668D+00

 Vector  177  Occ=0.000000D+00  E= 6.457651D+00

 Vector  178  Occ=0.000000D+00  E= 6.484724D+00

 Vector  179  Occ=0.000000D+00  E= 6.484777D+00

 Vector  180  Occ=0.000000D+00  E= 6.563437D+00

 Vector  181  Occ=0.000000D+00  E= 6.634952D+00

 Vector  182  Occ=0.000000D+00  E= 6.635091D+00

 Vector  183  Occ=0.000000D+00  E= 6.667904D+00

 Vector  184  Occ=0.000000D+00  E= 6.696709D+00

 Vector  185  Occ=0.000000D+00  E= 6.696714D+00

 Vector  186  Occ=0.000000D+00  E= 6.701060D+00

 Vector  187  Occ=0.000000D+00  E= 6.775206D+00

 Vector  188  Occ=0.000000D+00  E= 6.865772D+00

 Vector  189  Occ=0.000000D+00  E= 6.869620D+00

 Vector  190  Occ=0.000000D+00  E= 6.869626D+00

 Vector  191  Occ=0.000000D+00  E= 6.886160D+00

 Vector  192  Occ=0.000000D+00  E= 6.886195D+00

 Vector  193  Occ=0.000000D+00  E= 6.914041D+00

 Vector  194  Occ=0.000000D+00  E= 6.914298D+00

 Vector  195  Occ=0.000000D+00  E= 6.930623D+00

 Vector  196  Occ=0.000000D+00  E= 6.939608D+00

 Vector  197  Occ=0.000000D+00  E= 6.939678D+00

 Vector  198  Occ=0.000000D+00  E= 6.983112D+00

 Vector  199  Occ=0.000000D+00  E= 7.056001D+00

 Vector  200  Occ=0.000000D+00  E= 7.142328D+00

 Vector  201  Occ=0.000000D+00  E= 7.167263D+00

 Vector  202  Occ=0.000000D+00  E= 7.167320D+00

 Vector  203  Occ=0.000000D+00  E= 7.242425D+00

 Vector  204  Occ=0.000000D+00  E= 7.577282D+00

 Vector  205  Occ=0.000000D+00  E= 7.577625D+00

 Vector  206  Occ=0.000000D+00  E= 7.806384D+00

 Vector  207  Occ=0.000000D+00  E= 8.005118D+00

 Vector  208  Occ=0.000000D+00  E= 8.005442D+00

 Vector  209  Occ=0.000000D+00  E= 1.114253D+01

 Vector  210  Occ=0.000000D+00  E= 1.233061D+01

 Vector  211  Occ=0.000000D+00  E= 1.233083D+01

 Vector  212  Occ=0.000000D+00  E= 1.360463D+01

 Vector  213  Occ=0.000000D+00  E= 1.360475D+01

 Vector  214  Occ=0.000000D+00  E= 1.364564D+01

 Vector  215  Occ=0.000000D+00  E= 1.365152D+01

 Vector  216  Occ=0.000000D+00  E= 1.403394D+01

 Vector  217  Occ=0.000000D+00  E= 1.403429D+01

 Vector  218  Occ=0.000000D+00  E= 1.491878D+01

 Vector  219  Occ=0.000000D+00  E= 1.572377D+01

 Vector  220  Occ=0.000000D+00  E= 1.598349D+01

 Vector  221  Occ=0.000000D+00  E= 1.598430D+01

 Vector  222  Occ=0.000000D+00  E= 1.720178D+01

 Vector  223  Occ=0.000000D+00  E= 1.720182D+01

 Vector  224  Occ=0.000000D+00  E= 1.731346D+01

     Multipole analysis of the density
     ---------------------------------

     L   x y z        total         alpha         beta         nuclear
     -   - - -        -----         -----         ----         -------
     0   0 0 0     -2.000000    -21.000000    -21.000000     40.000000

     1   1 0 0      0.891397      7.000353      7.000353    -13.109309
     1   0 1 0     -0.514953     -4.055125     -4.055125      7.595297
     1   0 0 1     -1.209850     -8.814379     -8.814379     16.418907

     2   2 0 0    -37.554382    -56.885075    -56.885075     76.215769
     2   1 1 0     -0.713241     -4.846425     -4.846425      8.979608
     2   1 0 1     -2.153254    -14.787386    -14.787386     27.421519
     2   0 2 0    -38.367385    -62.438832    -62.438832     86.510278
     2   0 1 1      1.244212      8.547681      8.547681    -15.851151

         Total DFT energy =   -623.502162589199
@    5    -623.50216259 -1.3D-06  0.00017  0.00008  0.00050  0.00075    249.2
@    5    -623.50216259 -1.3D-06  0.00017  0.00008  0.00050  0.00075    249.2

 Output coordinates in angstroms (scale by  1.889725989 to convert to a.u.)

  No.       Tag          Charge          X              Y              Z
 ---- ---------------- ---------- -------------- -------------- --------------
    1 S                   16.0000    -0.00577748     0.00356329    -0.06051397
    2 O                    8.0000    -0.16964765     1.56209415    -0.01562276
    3 O                    8.0000    -1.43926407    -0.63077099    -0.01614626
    4 O                    8.0000     0.75332320    -0.43604245     1.23886098

 Total times  cpu:      155.7s     wall:      249.2s
