         Total DFT energy =     -426.770762418098
@ Step       Energy      Delta E   Gmax     Grms     Xrms     Xmax   Walltime
@ ---- ---------------- -------- -------- -------- -------- -------- --------
@    0    -426.77076242  0.0D+00  0.02048  0.00787  0.00000  0.00000    108.9
         Total DFT energy =     -426.771938581062
         Total DFT energy =     -426.772229134834
@    1    -426.77222913 -1.5D-03  0.00672  0.00352  0.02325  0.05494    241.4
         Total DFT energy =     -426.772288974433
         Total DFT energy =     -426.772498093087
@    2    -426.77249809 -2.7D-04  0.00594  0.00291  0.01171  0.02473    368.4
         Total DFT energy =     -426.770872814011
         Total DFT energy =     -426.772716418207
@    3    -426.77271642 -2.2D-04  0.00727  0.00247  0.01073  0.02410    511.2
         Total DFT energy =     -426.772896051554
         Total DFT energy =     -426.772916745075
@    4    -426.77291675 -2.0D-04  0.00269  0.00120  0.01175  0.02499    610.7
         Total DFT energy =     -426.772961962932
         Total DFT energy =     -426.772965380488
@    5    -426.77296538 -4.9D-05  0.00101  0.00042  0.00749  0.02148    698.9
         Total DFT energy =     -426.772973573630
         Total DFT energy =     -426.772974525475
@    6    -426.77297453 -9.1D-06  0.00038  0.00015  0.00282  0.00600    766.0
         Total DFT energy =     -426.772975433113
         Total DFT energy =   -426.772975433113
@    7    -426.77297543 -9.1D-07  0.00032  0.00012  0.00082  0.00297    799.8
         Total DFT energy =     -426.772977078349
         Total DFT energy =   -426.772977078349
@    8    -426.77297708 -1.6D-06  0.00014  0.00007  0.00143  0.00501    833.4
         Total DFT energy =     -426.772977728983

                       DFT Final Molecular Orbital Analysis
                       ------------------------------------

 Vector    1  Occ=2.000000D+00  E=-2.410504D+01

 Vector  276  Occ=0.000000D+00  E= 6.669303D+00

 Vector  277  Occ=0.000000D+00  E= 6.716961D+00

 Vector  278  Occ=0.000000D+00  E= 6.749168D+00

 Vector  279  Occ=0.000000D+00  E= 6.799413D+00

 Vector  280  Occ=0.000000D+00  E= 6.833646D+00

 Vector  281  Occ=0.000000D+00  E= 6.894980D+00

 Vector  282  Occ=0.000000D+00  E= 6.899745D+00

 Vector  283  Occ=0.000000D+00  E= 7.034849D+00

 Vector  284  Occ=0.000000D+00  E= 7.061547D+00

 Vector  285  Occ=0.000000D+00  E= 7.083489D+00

 Vector  286  Occ=0.000000D+00  E= 7.147080D+00

 Vector  287  Occ=0.000000D+00  E= 7.177147D+00

 Vector  288  Occ=0.000000D+00  E= 7.200339D+00

 Vector  289  Occ=0.000000D+00  E= 7.209611D+00

 Vector  290  Occ=0.000000D+00  E= 7.248440D+00

 Vector  291  Occ=0.000000D+00  E= 7.350336D+00

 Vector  292  Occ=0.000000D+00  E= 7.367170D+00

 Vector  293  Occ=0.000000D+00  E= 7.386578D+00

 Vector  294  Occ=0.000000D+00  E= 7.478621D+00

 Vector  295  Occ=0.000000D+00  E= 7.493572D+00

 Vector  296  Occ=0.000000D+00  E= 7.719824D+00

 Vector  297  Occ=0.000000D+00  E= 7.780136D+00

 Vector  298  Occ=0.000000D+00  E= 7.922696D+00

 Vector  299  Occ=0.000000D+00  E= 7.951622D+00

 Vector  300  Occ=0.000000D+00  E= 8.134257D+00

 Vector  301  Occ=0.000000D+00  E= 8.148872D+00

 Vector  302  Occ=0.000000D+00  E= 8.300975D+00

 Vector  303  Occ=0.000000D+00  E= 8.448035D+00

 Vector  304  Occ=0.000000D+00  E= 8.459175D+00

 Vector  305  Occ=0.000000D+00  E= 8.516380D+00

 Vector  306  Occ=0.000000D+00  E= 8.537159D+00

 Vector  307  Occ=0.000000D+00  E= 8.595974D+00

 Vector  308  Occ=0.000000D+00  E= 8.688783D+00

 Vector  309  Occ=0.000000D+00  E= 8.699592D+00

 Vector  310  Occ=0.000000D+00  E= 8.791387D+00

 Vector  311  Occ=0.000000D+00  E= 8.796077D+00

 Vector  312  Occ=0.000000D+00  E= 8.822479D+00

 Vector  313  Occ=0.000000D+00  E= 8.829215D+00

 Vector  314  Occ=0.000000D+00  E= 8.831694D+00

 Vector  315  Occ=0.000000D+00  E= 8.840193D+00

 Vector  316  Occ=0.000000D+00  E= 8.910742D+00

 Vector  317  Occ=0.000000D+00  E= 8.936806D+00

 Vector  318  Occ=0.000000D+00  E= 8.952234D+00

 Vector  319  Occ=0.000000D+00  E= 8.985820D+00

 Vector  320  Occ=0.000000D+00  E= 9.029905D+00

 Vector  321  Occ=0.000000D+00  E= 9.066710D+00

 Vector  322  Occ=0.000000D+00  E= 9.186570D+00

 Vector  323  Occ=0.000000D+00  E= 9.194994D+00

 Vector  324  Occ=0.000000D+00  E= 9.230212D+00

 Vector  325  Occ=0.000000D+00  E= 9.311308D+00

 Vector  326  Occ=0.000000D+00  E= 9.323675D+00

 Vector  327  Occ=0.000000D+00  E= 9.533709D+00

 Vector  328  Occ=0.000000D+00  E= 9.658178D+00

 Vector  329  Occ=0.000000D+00  E= 9.969466D+00

 Vector  330  Occ=0.000000D+00  E= 1.016719D+01

 Vector  331  Occ=0.000000D+00  E= 1.020542D+01

 Vector  332  Occ=0.000000D+00  E= 1.026271D+01

 Vector  333  Occ=0.000000D+00  E= 1.036167D+01

 Vector  334  Occ=0.000000D+00  E= 1.352525D+01

 Vector  335  Occ=0.000000D+00  E= 1.378932D+01

 Vector  336  Occ=0.000000D+00  E= 1.425054D+01

 Vector  337  Occ=0.000000D+00  E= 1.451395D+01

 Vector  338  Occ=0.000000D+00  E= 1.502756D+01

 Vector  339  Occ=0.000000D+00  E= 1.533484D+01

 Vector  340  Occ=0.000000D+00  E= 1.572252D+01

 Vector  341  Occ=0.000000D+00  E= 1.664259D+01

 Vector  342  Occ=0.000000D+00  E= 1.684167D+01

 Vector  343  Occ=0.000000D+00  E= 1.691565D+01

 Vector  344  Occ=0.000000D+00  E= 1.836731D+01

 Vector  345  Occ=0.000000D+00  E= 1.863512D+01

 Vector  346  Occ=0.000000D+00  E= 1.884990D+01

 Vector  347  Occ=0.000000D+00  E= 1.889765D+01

 Vector  348  Occ=0.000000D+00  E= 1.911032D+01

 Vector  349  Occ=0.000000D+00  E= 1.946976D+01

 Vector  350  Occ=0.000000D+00  E= 2.127244D+01

 Vector  351  Occ=0.000000D+00  E= 2.137336D+01

 Vector  352  Occ=0.000000D+00  E= 2.334968D+01

 Vector  353  Occ=0.000000D+00  E= 2.387809D+01

 Vector  354  Occ=0.000000D+00  E= 2.852088D+01

 Vector  355  Occ=0.000000D+00  E= 2.892048D+01

     Multipole analysis of the density
     ---------------------------------

     L   x y z        total         alpha         beta         nuclear
     -   - - -        -----         -----         ----         -------
     0   0 0 0     -1.000000    -24.000000    -24.000000     47.000000

     1   1 0 0      0.174259      4.372983      4.372983     -8.571708
     1   0 1 0      0.529435      9.042999      9.042999    -17.556563
     1   0 0 1      0.222083    -36.825903    -36.825903     73.873889

     2   2 0 0    -29.167666    -61.042273    -61.042273     92.916879
     2   1 1 0     -2.410860     -9.578087     -9.578087     16.745315
     2   1 0 1      1.089339     17.819388     17.819388    -34.549437
     2   0 2 0    -31.228239    -61.732488    -61.732488     92.236736
     2   0 1 1      2.350940     35.090555     35.090555    -67.830169

         Total DFT energy =   -426.772977728983
@    9    -426.77297773 -6.5D-07  0.00012  0.00005  0.00048  0.00116    866.5
@    9    -426.77297773 -6.5D-07  0.00012  0.00005  0.00048  0.00116    866.5

 Output coordinates in angstroms (scale by  1.889725989 to convert to a.u.)

  No.       Tag          Charge          X              Y              Z
 ---- ---------------- ---------- -------------- -------------- --------------
    1 C                    6.0000    -0.00260774    -0.00530338    -0.03866014
    2 C                    6.0000    -0.03318808     0.03015617     1.52822347
    3 O                    8.0000     0.59087541     0.99421703    -0.53239744
    4 O                    8.0000    -0.54752501    -0.99681569    -0.57686474
    5 H                    1.0000     0.33815139     0.98345360     1.93868023
    6 F                    9.0000    -1.31399565    -0.17049732     2.04563152
    7 F                    9.0000     0.75775868    -0.98531541     2.07552610

 Total times  cpu:      854.6s     wall:      866.5s
