 Output coordinates in angstroms (scale by  1.889725989 to convert to a.u.)

  No.       Tag          Charge          X              Y              Z
 ---- ---------------- ---------- -------------- -------------- --------------
    1 N                    7.0000    -0.00273617    -0.00346072     0.04425357
    2 O                    8.0000     0.54456431     0.93062828    -0.61624410
    3 O                    8.0000    -0.53066413    -0.94303456    -0.62416747

         Total DFT energy =     -204.957055233674

                    DFT Final Alpha Molecular Orbital Analysis
                    ------------------------------------------

 Vector    1  Occ=1.000000D+00  E=-1.886902D+01

 Vector   86  Occ=0.000000D+00  E= 2.246394D+00

 Vector   87  Occ=0.000000D+00  E= 2.263945D+00

 Vector   88  Occ=0.000000D+00  E= 2.268647D+00

 Vector   89  Occ=0.000000D+00  E= 2.343111D+00

 Vector   90  Occ=0.000000D+00  E= 2.359360D+00

 Vector   91  Occ=0.000000D+00  E= 2.424631D+00

 Vector   92  Occ=0.000000D+00  E= 2.442589D+00

 Vector   93  Occ=0.000000D+00  E= 2.553232D+00

 Vector   94  Occ=0.000000D+00  E= 2.588197D+00

 Vector   95  Occ=0.000000D+00  E= 2.599872D+00

 Vector   96  Occ=0.000000D+00  E= 2.754779D+00

 Vector   97  Occ=0.000000D+00  E= 2.754866D+00

 Vector   98  Occ=0.000000D+00  E= 2.884723D+00

 Vector   99  Occ=0.000000D+00  E= 2.939155D+00

 Vector  100  Occ=0.000000D+00  E= 2.974364D+00

 Vector  101  Occ=0.000000D+00  E= 3.084900D+00

 Vector  102  Occ=0.000000D+00  E= 3.168908D+00

 Vector  103  Occ=0.000000D+00  E= 3.597771D+00

 Vector  104  Occ=0.000000D+00  E= 3.732973D+00

 Vector  105  Occ=0.000000D+00  E= 4.165686D+00

 Vector  106  Occ=0.000000D+00  E= 4.294412D+00

 Vector  107  Occ=0.000000D+00  E= 4.372714D+00

 Vector  108  Occ=0.000000D+00  E= 4.402511D+00

 Vector  109  Occ=0.000000D+00  E= 4.429860D+00

 Vector  110  Occ=0.000000D+00  E= 4.469543D+00

 Vector  111  Occ=0.000000D+00  E= 4.508856D+00

 Vector  112  Occ=0.000000D+00  E= 4.528581D+00

 Vector  113  Occ=0.000000D+00  E= 4.686993D+00

 Vector  114  Occ=0.000000D+00  E= 4.720044D+00

 Vector  115  Occ=0.000000D+00  E= 4.772172D+00

 Vector  116  Occ=0.000000D+00  E= 4.818157D+00

 Vector  117  Occ=0.000000D+00  E= 4.981241D+00

 Vector  118  Occ=0.000000D+00  E= 5.019239D+00

 Vector  119  Occ=0.000000D+00  E= 5.040110D+00

 Vector  120  Occ=0.000000D+00  E= 5.113089D+00

 Vector  121  Occ=0.000000D+00  E= 5.149367D+00

 Vector  122  Occ=0.000000D+00  E= 5.179195D+00

 Vector  123  Occ=0.000000D+00  E= 5.337767D+00

 Vector  124  Occ=0.000000D+00  E= 5.576051D+00

 Vector  125  Occ=0.000000D+00  E= 5.895947D+00

 Vector  126  Occ=0.000000D+00  E= 5.922185D+00

 Vector  127  Occ=0.000000D+00  E= 5.954425D+00

 Vector  128  Occ=0.000000D+00  E= 5.982217D+00

 Vector  129  Occ=0.000000D+00  E= 6.000126D+00

 Vector  130  Occ=0.000000D+00  E= 6.044158D+00

 Vector  131  Occ=0.000000D+00  E= 6.090310D+00

 Vector  132  Occ=0.000000D+00  E= 6.118332D+00

 Vector  133  Occ=0.000000D+00  E= 6.164639D+00

 Vector  134  Occ=0.000000D+00  E= 6.200275D+00

 Vector  135  Occ=0.000000D+00  E= 6.361169D+00

 Vector  136  Occ=0.000000D+00  E= 6.399571D+00

 Vector  137  Occ=0.000000D+00  E= 6.472145D+00

 Vector  138  Occ=0.000000D+00  E= 6.495622D+00

 Vector  139  Occ=0.000000D+00  E= 6.503957D+00

 Vector  140  Occ=0.000000D+00  E= 6.574783D+00

 Vector  141  Occ=0.000000D+00  E= 6.623449D+00

 Vector  142  Occ=0.000000D+00  E= 6.884782D+00

 Vector  143  Occ=0.000000D+00  E= 6.941674D+00

 Vector  144  Occ=0.000000D+00  E= 6.975643D+00

 Vector  145  Occ=0.000000D+00  E= 6.990536D+00

 Vector  146  Occ=0.000000D+00  E= 7.169428D+00

 Vector  147  Occ=0.000000D+00  E= 7.266497D+00

 Vector  148  Occ=0.000000D+00  E= 7.304380D+00

 Vector  149  Occ=0.000000D+00  E= 7.475402D+00

 Vector  150  Occ=0.000000D+00  E= 8.087981D+00

 Vector  151  Occ=0.000000D+00  E= 9.537222D+00

 Vector  152  Occ=0.000000D+00  E= 1.051021D+01

 Vector  153  Occ=0.000000D+00  E= 1.173482D+01

 Vector  154  Occ=0.000000D+00  E= 1.178772D+01

 Vector  155  Occ=0.000000D+00  E= 1.225292D+01

 Vector  156  Occ=0.000000D+00  E= 1.262030D+01

 Vector  157  Occ=0.000000D+00  E= 1.318705D+01

 Vector  158  Occ=0.000000D+00  E= 1.322244D+01

 Vector  159  Occ=0.000000D+00  E= 1.342461D+01

 Vector  160  Occ=0.000000D+00  E= 1.388883D+01

 Vector  161  Occ=0.000000D+00  E= 1.560087D+01

 Vector  162  Occ=0.000000D+00  E= 1.641216D+01

 Vector  163  Occ=0.000000D+00  E= 1.683851D+01

 Vector  164  Occ=0.000000D+00  E= 1.702501D+01

 Vector  165  Occ=0.000000D+00  E= 1.957103D+01

     Multipole analysis of the density
     ---------------------------------

     L   x y z        total         alpha         beta         nuclear
     -   - - -        -----         -----         ----         -------
     0   0 0 0     -0.000000    -12.000000    -11.000000     23.000000

     1   1 0 0     -0.002336     -0.090756     -0.085526      0.173946
     1   0 1 0      0.000650      0.121721      0.112264     -0.233334
     1   0 0 1      0.159861      9.477825      8.848950    -18.166914

     2   2 0 0    -11.840679    -14.715228    -13.642660     16.517208
     2   1 1 0     -0.897940    -15.414398    -14.258602     28.775060
     2   1 0 1      0.002915      0.077026      0.053510     -0.127621
     2   0 2 0    -12.890089    -32.731169    -30.307909     50.148989
     2   0 1 1     -0.009801     -0.229707     -0.208144      0.428051

 Total times  cpu:        8.7s     wall:        9.2s
